# vtk DataFile Version 3.0
#This file was generated by the deal.II library on 2022/4/28 at 15:47:26
ASCII
DATASET UNSTRUCTURED_GRID

POINTS 4692 double
0.19317498835891214193 0.11566423161097541539 0
0.19235763085283918983 0.11469607822134297859 0
0.19441372752649163647 0.11410139386937048767 0
0.19345590946658317022 0.11397690419015049645 0
0.19154027334676626548 0.11372792483171055566 0
0.19359637002041868437 0.11313324047973805087 0
0.19235763085283918983 0.11469607822134297859 0
0.19345590946658317022 0.11397690419015049645 0
0.195652466694071131 0.11253855612776555994 0
0.19441372752649163647 0.11410139386937048767 0
0.19359637002041868437 0.11313324047973805087 0
0.19345590946658317022 0.11397690419015049645 0
0.16776653776251337913 0.079029221496630677746 0
0.17335935284770698228 0.083226659424698118395 0
0.16764498656102397312 0.089483322594253511539 0
0.17141404701831616797 0.088796914180424194041 0
0.17895216793290061319 0.087424097352765545166 0
0.17323780164621760402 0.093680760522320952188 0
0.17335935284770698228 0.083226659424698118395 0
0.17141404701831616797 0.088796914180424194041 0
0.1675234353595345671 0.099937423691876359211 0
0.16764498656102397312 0.089483322594253511539 0
0.17323780164621760402 0.093680760522320952188 0
0.17141404701831616797 0.088796914180424194041 0
0.18227991044971186829 0.097718563517298573373 0
0.18484985109180240848 0.095938423062053829193 0
0.18451285886464421915 0.099046466044881223412 0
0.18548183648772711973 0.097417071565523857823 0
0.1874197917338929209 0.094158282606809071136 0
0.18708279950673473158 0.097266325589636465354 0
0.18484985109180240848 0.095938423062053829193 0
0.18548183648772711973 0.097417071565523857823 0
0.18674580727957657 0.10037436857246387345 0
0.18451285886464421915 0.099046466044881223412 0
0.18708279950673473158 0.097266325589636465354 0
0.18548183648772711973 0.097417071565523857823 0
0.19501227977884674769 0.11740949301047888531 0
0.19531803129259694973 0.11621090876013538684 0
0.19683911331456913074 0.11683587302851564105 0
0.19643400314516179517 0.11622802352227439016 0
0.19562378280634717953 0.11501232450979188837 0
0.19714486482831933278 0.11563728877817214258 0
0.19531803129259694973 0.11621090876013538684 0
0.19643400314516179517 0.11622802352227439016 0
0.19866594685029151379 0.11626225304655239678 0
0.19683911331456913074 0.11683587302851564105 0
0.19714486482831933278 0.11563728877817214258 0
0.19643400314516179517 0.11622802352227439016 0
0.21801167926225475946 0.092694240963064333805 0
0.20900584213112738396 0.096347120481532169678 0
0.20900584213112738396 0.083847120481532172453 0
0.20600389642075159213 0.089231413654354788112 0
0.20000000500000000847 0.10000000000000000555 0
0.20000000500000000847 0.087500000000000008327 0
0.20900584213112738396 0.096347120481532169678 0
0.20600389642075159213 0.089231413654354788112 0
0.20000000500000000847 0.075000000000000011102 0
0.20900584213112738396 0.083847120481532172453 0
0.20000000500000000847 0.087500000000000008327 0
0.20600389642075159213 0.089231413654354788112 0
0.19476701546324412528 0.10823581679773712494 0
0.19630901591430494069 0.10981077346120210469 0
0.19520974107865762814 0.1103871864627513355 0
0.19609016617422700413 0.1107200343500565759 0
0.19785101636536575609 0.11138573012466709833 0
0.19675174152971844355 0.11196214312621632914 0
0.19630901591430494069 0.10981077346120210469 0
0.19609016617422700413 0.1107200343500565759 0
0.195652466694071131 0.11253855612776555994 0
0.19520974107865762814 0.1103871864627513355 0
0.19675174152971844355 0.11196214312621632914 0
0.19609016617422700413 0.1107200343500565759 0
0.19785101636536575609 0.11138573012466709833 0
0.19783407520893095399 0.11262684660182026297 0
0.19675174152971844355 0.11196214312621632914 0
0.19710687237064436483 0.11259741644380201475 0
0.1978171340524961519 0.11386796307897341374 0
0.19673480037328364145 0.11320325960336949378 0
0.19783407520893095399 0.11262684660182026297 0
0.19710687237064436483 0.11259741644380201475 0
0.195652466694071131 0.11253855612776555994 0
0.19675174152971844355 0.11196214312621632914 0
0.19673480037328364145 0.11320325960336949378 0
0.19710687237064436483 0.11259741644380201475 0
0.19187897384372620824 0.12094686962166853461 0
0.19418994871745143271 0.12183825218722778294 0
0.19268647002534899926 0.12502789866698510446 0
0.19395795454729156115 0.1242618106955857421 0
0.19650092359117668495 0.12272963475278703127 0
0.19499744489907422373 0.12591928123254436667 0
0.19418994871745143271 0.12183825218722778294 0
0.19395795454729156115 0.1242618106955857421 0
0.19349396620697179028 0.12910892771230167431 0
0.19268647002534899926 0.12502789866698510446 0
0.19499744489907422373 0.12591928123254436667 0
0.19395795454729156115 0.1242618106955857421 0
0.24510868897528126364 0.16409582902672298355 0
0.25206070474506719892 0.17695739644426136672 0
0.23811650316517890547 0.17256311811913474519 0
0.24508190894840364837 0.17831506670002306159 0
0.25901272051485313419 0.18981896386179974989 0
0.24506851893496484074 0.18542468553667312836 0
0.25206070474506719892 0.17695739644426136672 0
0.24508190894840364837 0.17831506670002306159 0
0.23112431735507654729 0.18103040721154650683 0
0.23811650316517890547 0.17256311811913474519 0
0.24506851893496484074 0.18542468553667312836 0
0.24508190894840364837 0.17831506670002306159 0
0.32369433970406308321 0.12700148006168049397 0
0.29921034107973742966 0.13469185088920321292 0
0.29904425646387644555 0.11986135482799857577 0
0.29093828512772157424 0.12736831045757435188 0
0.27472634245541183162 0.14238222171672593186 0
0.27456025783955084751 0.12755172565552130859 0
0.29921034107973742966 0.13469185088920321292 0
0.29093828512772157424 0.12736831045757435188 0
0.27439417322368980789 0.11272122959431665756 0
0.29904425646387644555 0.11986135482799857577 0
0.27456025783955084751 0.12755172565552130859 0
0.29093828512772157424 0.12736831045757435188 0
0.20407799680072954973 0.11520864675965478141 0
0.20556397263180922752 0.11197694980674349763 0
0.20734129097184941792 0.11505804196443139564 0
0.20724417680219589522 0.11295377892756498783 0
0.20704994846288890531 0.10874525285383221385 0
0.20882726680292909571 0.11182634501152011186 0
0.20556397263180922752 0.11197694980674349763 0
0.20724417680219589522 0.11295377892756498783 0
0.21060458514296928612 0.114907437169207996 0
0.20734129097184941792 0.11505804196443139564 0
0.20882726680292909571 0.11182634501152011186 0
0.20724417680219589522 0.11295377892756498783 0
0.19476701546324412528 0.10823581679773712494 0
0.1961820511523260091 0.10839273620786052388 0
0.19630901591430494069 0.10981077346120210469 0
0.19673837289000592476 0.10939040084679603482 0
0.19759708684140786517 0.1085496556179839367 0
0.19772405160338679675 0.10996769287132551751 0
0.1961820511523260091 0.10839273620786052388 0
0.19673837289000592476 0.10939040084679603482 0
0.19785101636536575609 0.11138573012466709833 0
0.19630901591430494069 0.10981077346120210469 0
0.19772405160338679675 0.10996769287132551751 0
0.19673837289000592476 0.10939040084679603482 0
0.20013528160951429835 0.1199995020035078408 0
0.20052651107733432401 0.12008950777645774344 0
0.200223927140747604 0.12050946955685629125 0
0.20045519827554983405 0.12039948422104007619 0
0.20091774054515437742 0.1201795135494076322 0
0.20061515660856765741 0.12059947532980619389 0
0.20052651107733432401 0.12008950777645774344 0
0.20045519827554983405 0.12039948422104007619 0
0.20031257267198090966 0.12101943711020475558 0
0.200223927140747604 0.12050946955685629125 0
0.20061515660856765741 0.12059947532980619389 0
0.20045519827554983405 0.12039948422104007619 0
0.20138709397439716331 0.11952808933963474103 0
0.20115241725977578424 0.11985380144452117968 0
0.20100004609522487131 0.11944918756276987071 0
0.20097261091186804927 0.11969262955831579121 0
0.20091774054515437742 0.1201795135494076322 0
0.20076536938060346449 0.11977489966765630935 0
0.20115241725977578424 0.11985380144452117968 0
0.20097261091186804927 0.11969262955831579121 0
0.20061299821605255156 0.11937028578590500039 0
0.20100004609522487131 0.11944918756276987071 0
0.20076536938060346449 0.11977489966765630935 0
0.20097261091186804927 0.11969262955831579121 0
0.19243497994231686943 0.11828297953777379414 0
0.19008958233826667161 0.11848843393021391002 0
0.19144180307193542356 0.11729536155936161335 0
0.19020926362602907922 0.11776153714712574161 0
0.1877441847342164738 0.11869388832265403977 0
0.18909640546788519799 0.11750081595180172922 0
0.19008958233826667161 0.11848843393021391002 0
0.19020926362602907922 0.11776153714712574161 0
0.19044862620155394994 0.11630774358094943255 0
0.19144180307193542356 0.11729536155936161335 0
0.18909640546788519799 0.11750081595180172922 0
0.19020926362602907922 0.11776153714712574161 0
0.1874197917338929209 0.094158282606809071136 0
0.18991948943475470135 0.096001605301901798972 0
0.18708279950673473158 0.097266325589636465354 0
0.18886159538302868532 0.09745919305875583305 0
0.1924191871356164818 0.097844927996994512931 0
0.18958249720759651202 0.099109648284729193191 0
0.18991948943475470135 0.096001605301901798972 0
0.18886159538302868532 0.09745919305875583305 0
0.18674580727957657 0.10037436857246387345 0
0.18708279950673473158 0.097266325589636465354 0
0.18958249720759651202 0.099109648284729193191 0
0.18886159538302868532 0.09745919305875583305 0
0.20012431153156040597 0.11874955013896421052 0
0.19956944470610696318 0.11844190783676823708 0
0.20011882649258344591 0.11812457420669239538 0
0.19975074362194014665 0.11812780464931900426 0
0.19901457788065352039 0.11813426553457226365 0
0.19956395966713003087 0.11781693190449642195 0
0.19956944470610696318 0.11844190783676823708 0
0.19975074362194014665 0.11812780464931900426 0
0.2001133414536065136 0.11749959827442058025 0
0.20011882649258344591 0.11812457420669239538 0
0.19956395966713003087 0.11781693190449642195 0
0.19975074362194014665 0.11812780464931900426 0
0.20975856243273618973 0.12881151757372194533 0
[...]
POINT_DATA 4692
SCALARS solution double 1
LOOKUP_TABLE default
0.037416573613882064819 0.038844045251607894897 0.02915767766535282135 0.03246089443564414978 0.039293531328439712524 0.030705979093909263611 0.038844045251607894897 0.03246089443564414978 0.02074914984405040741 0.02915767766535282135 0.030705979093909263611 0.03246089443564414978 0.04692624509334564209 0.043550550937652587891 0.057708639651536941528 0.051378086209297180176 0.038471847772598266602 0.054058298468589782715 0.043550550937652587891 0.051378086209297180176 0.070622526109218597412 0.057708639651536941528 0.054058298468589782715 0.051378086209297180176 0.041857767850160598755 0.035097327083349227905 0.038779813796281814575 0.034850638359785079956 0.02811470814049243927 0.03143997490406036377 0.035097327083349227905 0.034850638359785079956 0.034801185131072998047 0.038779813796281814575 0.03143997490406036377 0.034850638359785079956 0.034129772335290908813 0.029782965779304504395 0.023283492773771286011 0.023454874753952026367 0.024973016232252120972 0.018695568665862083435 0.029782965779304504395 0.023454874753952026367 0.0098566245287656784058 0.023283492773771286011 0.018695568665862083435 0.023454874753952026367 0.038676362484693527222 0.022269601002335548401 0.01651296764612197876 0.01248091086745262146 0 0 0.022269601002335548401 0.01248091086745262146 0 0.01651296764612197876 0 0.01248091086745262146 0.019518731161952018738 0.015378584153950214386 0.020288309082388877869 0.016838448122143745422 0.0099249714985489845276 0.015511283650994300842 0.015378584153950214386 0.016838448122143745422 0.02074914984405040741 0.020288309082388877869 0.015511283650994300842 0.016838448122143745422 0.0099249714985489845276 0.011097093112766742706 0.015511283650994300842 0.014290818944573402405 0.012116769328713417053 0.017011100426316261292 0.011097093112766742706 0.014290818944573402405 0.02074914984405040741 0.015511283650994300842 0.017011100426316261292 0.014290818944573402405 0.05933214724063873291 0.056966155767440795898 0.075377203524112701416 0.067971274256706237793 0.053243465721607208252 0.075334496796131134033 0.056966155767440795898 0.067971274256706237793 0.090900585055351257324 0.075377203524112701416 0.075334496796131134033 0.067971274256706237793 0.21904067695140838623 0.25039756298065185547 0.23503071069717407227 0.25009992718696594238 0.27938896417617797852 0.26574426889419555664 0.25039756298065185547 0.25009992718696594238 0.25110870599746704102 0.23503071069717407227 0.26574426889419555664 0.25009992718696594238 0.19010473787784576416 0.19242471456527709961 0.16681371629238128662 0.17487950623035430908 0.19226016104221343994 0.16503313183784484863 0.19242471456527709961 0.17487950623035430908 0.13893808424472808838 0.16681371629238128662 0.16503313183784484863 0.17487950623035430908 0.023243945091962814331 0.025175681337714195251 0.038370698690414428711 0.033140815794467926025 0.026440845802426338196 0.037464533001184463501 0.025175681337714195251 0.033140815794467926025 0.049417264759540557861 0.038370698690414428711 0.037464533001184463501 0.033140815794467926025 0.019518731161952018738 0.014741620980203151703 0.015378584153950214386 0.013197136111557483673 0.0093980338424444198608 0.0097519047558307647705 0.014741620980203151703 0.013197136111557483673 0.0099249714985489845276 0.015378584153950214386 0.0097519047558307647705 0.013197136111557483673 0 0.016056455671787261963 0.022767718881368637085 0.017143301665782928467 0.018489036709070205688 0.025233846157789230347 0.016056455671787261963 0.017143301665782928467 0.027242330834269523621 0.022767718881368637085 0.025233846157789230347 0.017143301665782928467 0.017835032194852828979 0.020112624391913414001 0.014854758046567440033 0.014291172847151756287 0.018489036709070205688 0.014720925129950046539 0.020112624391913414001 0.014291172847151756287 0.0071938284672796726227 0.014854758046567440033 0.014720925129950046539 0.014291172847151756287 0.047889482229948043823 0.0573215484619140625 0.04915352165699005127 0.054040055721998214722 0.064066909253597259521 0.057419735938310623169 0.0573215484619140625 0.054040055721998214722 0.049199614673852920532 0.04915352165699005127 0.057419735938310623169 0.054040055721998214722 0.02811470814049243927 0.024114970117807388306 0.03143997490406036377 0.02736523747444152832 0.019190069288015365601 0.027136182412505149841 0.024114970117807388306 0.02736523747444152832 0.034801185131072998047 0.03143997490406036377 0.027136182412505149841 0.02736523747444152832 0 0.0063769123516976833344 0 0.003602672601118683815 0.010488127358257770538 0.0053549110889434814453 0.0063769123516976833344 0.003602672601118683815 0 0 0.0053549110889434814453 0.003602672601118683815 0.094532079994678497314 0.084008604288101196289 0.085298702120780944824 0.079865641891956329346 0.069992408156394958496 0.073419108986854553223 0.084008604288101196289 0.079865641891956329346 0.075500577688217163086 0.085298702120780944824 0.073419108986854553223 0.079865641891956329346 0.066265523433685302734 0.080623827874660491943 0.080177061259746551514 0.082175359129905700684 0.090951912105083465576 0.090394712984561920166 0.080623827874660491943 0.082175359129905700684 0.090900585055351257324 0.080177061259746551514 0.090394712984561920166 0.082175359129905700684 0.090951912105083465576 0.080383069813251495361 0.080149434506893157959 0.074793204665184020996 0.065867260098457336426 0.068464145064353942871 0.080383069813251495361 0.074793204665184020996 0.069992408156394958496 0.080149434506893157959 0.068464145064353942871 0.074793204665184020996 0.024105587974190711975 0.031231714412569999695 0.030426295474171638489 0.031366694718599319458 0.035978559404611587524 0.035534407943487167358 0.031231714412569999695 0.031366694718599319458 0.034129772335290908813 0.030426295474171638489 0.035534407943487167358 0.031366694718599319458 0.023508729413151741028 0.021894717589020729065 0.02002762816846370697 0.014833749271929264069 0.014683203771710395813 0.012989576905965805054 0.021894717589020729065 0.014833749271929264069 0 0.02002762816846370697 0.012989576905965805054 0.014833749271929264069 0.010488127358257770538 0.010588981211185455322 0.0053549110889434814453 0.0068892645649611949921 0.0098566245287656784058 0.0057538845576345920563 0.010588981211185455322 0.0068892645649611949921 0 0.0053549110889434814453 0.0057538845576345920563 0.0068892645649611949921 0.053243465721607208252 0.045306336134672164917 0.049489669501781463623 0.042476192116737365723 0.031138097867369651794 0.038666784763336181641 0.045306336134672164917 0.042476192116737365723 0.042329672724008560181 0.049489669501781463623 0.038666784763336181641 0.042476192116737365723 0.0098566245287656784058 0.0048230490647256374359 0.0057538845576345920563 0.0032984709832817316055 0 0 0.0048230490647256374359 0.0032984709832817316055 0 0.0057538845576345920563 0 0.0032984709832817316055 0.014683203771710395813 0.013233019039034843445 0.012989576905965805054 0.0085272965952754020691 0.0086764115840196609497 0.0076444540172815322876 0.013233019039034843445 0.0085272965952754020691 0 0.012989576905965805054 0.0076444540172815322876 0.0085272965952754020691 0.014683203771710395813 0.026251530274748802185 0.018588524311780929565 0.021544158458709716797 0.031138097867369651794 0.026342876255512237549 0.026251530274748802185 0.021544158458709716797 0.018287524580955505371 0.018588524311780929565 0.026342876255512237549 0.021544158458709716797 0.031138097867369651794 0.026251530274748802185 0.030198106542229652405 0.023341491818428039551 0.014683203771710395813 0.021894717589020729065 0.026251530274748802185 0.023341491818428039551 0.023508729413151741028 0.030198106542229652405 0.021894717589020729065 0.023341491818428039551 0.0086764115840196609497 0.013233019039034843445 0.015279102139174938202 0.013695184141397476196 0.014683203771710395813 0.018588524311780929565 0.013233019039034843445 0.013695184141397476196 0.018287524580955505371 0.015279102139174938202 0.018588524311780929565 0.013695184141397476196 0.027242330834269523621 0.028029086068272590637 0.022767718881368637085 0.019209090620279312134 0.023508729413151741028 0.02002762816846370697 0.028029086068272590637 0.019209090620279312134 0 0.022767718881368637085 0.02002762816846370697 0.019209090620279312134 0.0071938284672796726227 0.014720925129950046539 0.006874223705381155014 0.0094960043206810951233 0.018489036709070205688 0.016056455671787261963 0.014720925129950046539 0.0094960043206810951233 0 0.006874223705381155014 0.016056455671787261963 0.0094960043206810951233 0.09151884913444519043 0.077549159526824951172 0.091230027377605438232 0.080448165535926818848 0.05933214724063873291 0.075377203524112701416 0.077549159526824951172 0.080448165535926818848 0.090900585055351257324 0.091230027377605438232 0.075377203524112701416 0.080448165535926818848 0.065867260098457336426 0.067012250423431396484 0.058400958776473999023 0.059649288654327392578 0.066265523433685302734 0.058416403830051422119 0.067012250423431396484 0.059649288654327392578 0.046115644276142120361 0.058400958776473999023 0.058416403830051422119 0.059649288654327392578 0.064066909253597259521 0.0573215484619140625 0.062443748116493225098 0.057246465235948562622 0.047889482229948043823 0.054382942616939544678 0.0573215484619140625 0.057246465235948562622 0.05933214724063873291 0.062443748116493225098 0.054382942616939544678 0.057246465235948562622 0.00827054586261510849 0.013543173670768737793 0.014123208820819854736 0.013921998441219329834 0.016146944835782051086 0.018267126753926277161 0.013543173670768737793 0.013921998441219329834 0.017835032194852828979 0.014123208820819854736 0.018267126753926277161 0.013921998441219329834 0.037416573613882064819 0.043105926364660263062 0.044118471443653106689 0.044825617223978042603 0.047889482229948043823 0.04915352165699005127 0.043105926364660263062 0.044825617223978042603 0.049199614673852920532 0.044118471443653106689 0.04915352165699005127 0.044825617223978042603 0.035978559404611587524 0.050144173204898834229 0.043366283178329467773 0.048438586294651031494 0.05933214724063873291 0.054382942616939544678 0.050144173204898834229 0.048438586294651031494 0.047889482229948043823 0.043366283178329467773 0.054382942616939544678 0.048438586294651031494 0.11187244206666946411 0.099738381803035736084 0.11904977262020111084 0.10785229504108428955 0.083267472684383392334 0.10629439353942871094 0.099738381803035736084 0.10785229504108428955 0.12768866121768951416 0.11904977262020111084 0.10629439353942871094 0.10785229504108428955 0.055123966187238693237 0.051859959959983825684 0.049105241894721984863 0.046303529292345046997 0.046115644276142120361 0.042906690388917922974 0.051859959959983825684 0.046303529292345046997 0.039902947843074798584 0.049105241894721984863 0.042906690388917922974 0.046303529292345046997 0.047889482229948043823 0.043105926364660263062 0.042136531323194503784 0.039860215038061141968 0.037416573613882064819 0.036430042237043380737 0.043105926364660263062 0.039860215038061141968 0.034129772335290908813 0.042136531323194503784 0.036430042237043380737 0.039860215038061141968 0.02074914984405040741 0.017011100426316261292 0.023057537153363227844 0.019283812493085861206 0.012116769328713417053 0.018852803856134414673 0.017011100426316261292 0.019283812493085861206 0.024973016232252120972 0.023057537153363227844 0.018852803856134414673 0.019283812493085861206 0.039902947843074798584 0.042906690388917922974 0.036753036081790924072 0.037608195096254348755 0.046115644276142120361 0.04041835293173789978 0.042906690388917922974 0.037608195096254348755 0.029746571555733680725 0.036753036081790924072 0.04041835293173789978 0.037608195096254348755 0.053243465721607208252 0.056966155767440795898 0.045662816613912582397 0.049658376723527908325 0.05933214724063873291 0.050144173204898834229 0.056966155767440795898 0.049658376723527908325 0.035978559404611587524 0.045662816613912582397 0.050144173204898834229 0.049658376723527908325 0.053451910614967346191 0.047715719789266586304 0.045496653765439987183 0.044092386960983276367 0.042594101279973983765 0.040435321629047393799 0.047715719789266586304 0.044092386960983276367 0.0372544899582862854 0.045496653765439987183 0.040435321629047393799 0.044092386960983276367 0.042329672724008560181 0.045675721019506454468 0.057248800992965698242 0.051968883723020553589 0.046115644276142120361 0.058416403830051422119 0.045675721019506454468 0.051968883723020553589 0.066265523433685302734 0.057248800992965698242 0.058416403830051422119 0.051968883723020553589 0.010488127358257770538 0.010689084418118000031 0.01484975125640630722 0.01205745059996843338 0.0086764115840196609497 0.015279102139174938202 0.010689084418118000031 0.01205745059996843338 0.018287524580955505371 0.01484975125640630722 0.015279102139174938202 0.01205745059996843338 0.023243945091962814331 0.0099846934899687767029 0.025175681337714195251 0.016341708600521087646 0 0.014225062914192676544 0.0099846934899687767029 0.016341708600521087646 0.026440845802426338196 0.025175681337714195251 0.014225062914192676544 0.016341708600521087646 0.00827054586261510849 0.0050418595783412456512 0.0073692947626113891602 0.004500628449022769928 0 0.0032823905348777770996 0.0050418595783412456512 0.004500628449022769928 0.0051747383549809455872 0.0073692947626113891602 0.0032823905348777770996 0.004500628449022769928 0.022114282473921775818 0.018239498138427734375 0.015907682478427886963 0.014161189086735248566 0.011956701986491680145 0.0108799738809466362 0.018239498138427734375 0.014161189086735248566 0.0088762100785970687866 0.015907682478427886963 0.0108799738809466362 0.014161189086735248566 0.090951912105083465576 0.092327229678630828857 0.10590697824954986572 0.10101804137229919434 0.094532079994678497314 0.10743393748998641968 0.092327229678630828857 0.10101804137229919434 0.11832291632890701294 0.10590697824954986572 0.10743393748998641968 0.10101804137229919434 0.0098566245287656784058 0.010588981211185455322 0.016819501295685768127 0.014386709779500961304 0.010488127358257770538 0.018521955236792564392 0.010588981211185455322 0.014386709779500961304 0.024105587974190711975 0.016819501295685768127 0.018521955236792564392 0.014386709779500961304 0.038471847772598266602 0.034072548151016235352 0.040290407836437225342 0.03631494566798210144 0.02811470814049243927 0.035097327083349227905 0.034072548151016235352 0.03631494566798210144 0.041857767850160598755 0.040290407836437225342 0.035097327083349227905 0.03631494566798210144 0.094532079994678497314 0.092327229678630828857 0.084008604288101196289 0.084239669144153594971 0.090951912105083465576 0.080149434506893157959 0.092327229678630828857 0.084239669144153594971 0.069992408156394958496 0.084008604288101196289 0.080149434506893157959 0.084239669144153594971 0.028185022994875907898 0.024511890485882759094 0.032655265182256698608 0.028439681977033615112 0.019518731161952018738 0.028973489999771118164 0.024511890485882759094 0.028439681977033615112 0.0372544899582862854 0.032655265182256698608 0.028973489999771118164 0.028439681977033615112 0.027242330834269523621 0.025233846157789230347 0.030611138790845870972 0.024719083681702613831 0.018489036709070205688 0.027123214676976203918 0.025233846157789230347 0.024719083681702613831 0.029746571555733680725 0.030611138790845870972 0.027123214676976203918 0.024719083681702613831 0 0.0076444540172815322876 0 0.0031334077939391136169 0.0086764115840196609497 0.0049549126997590065002 0.0076444540172815322876 0.0031334077939391136169 0 0 0.0049549126997590065002 0.0031334077939391136169 0.16762791574001312256 0.14504569768905639648 0.15631508827209472656 0.14409077167510986328 0.11832291632890701294 0.13299457728862762451 0.14504569768905639648 0.14409077167510986328 0.14557020366191864014 0.15631508827209472656 0.13299457728862762451 0.14409077167510986328 0.055123966187238693237 0.061555303633213043213 0.051859959959983825684 0.055717688053846359253 0.065867260098457336426 0.058400958776473999023 0.061555303633213043213 0.055717688053846359253 0.046115644276142120361 0.051859959959983825684 0.058400958776473999023 0.055717688053846359253 0.010488127358257770538 0.0063769123516976833344 0.010689084418118000031 0.0065235183574259281158 0 0.0049549126997590065002 0.0063769123516976833344 0.0065235183574259281158 0.0086764115840196609497 0.010689084418118000031 0.0049549126997590065002 0.0065235183574259281158 0.024105587974190711975 0.022562136873602867126 0.031231714412569999695 0.026807639747858047485 0.018287524580955505371 0.02980008348822593689 0.022562136873602867126 0.026807639747858047485 0.035978559404611587524 0.031231714412569999695 0.02980008348822593689 0.026807639747858047485 0.029746571555733680725 0.025161867961287498474 0.029763130471110343933 0.024757733568549156189 0.017835032194852828979 0.025180498138070106506 0.025161867961287498474 0.024757733568549156189 0.028247537091374397278 0.029763130471110343933 0.025180498138070106506 0.024757733568549156189 0.027242330834269523621 0.030611138790845870972 0.040235076099634170532 0.034722689539194107056 0.029746571555733680725 0.04041835293173789978 0.030611138790845870972 0.034722689539194107056 0.046115644276142120361 0.040235076099634170532 0.04041835293173789978 0.034722689539194107056 0.017835032194852828979 0.014854758046567440033 0.014123208820819854736 0.011008733883500099182 0.0071938284672796726227 0.0091444980353116989136 0.014854758046567440033 0.011008733883500099182 0.00827054586261510849 0.014123208820819854736 0.0091444980353116989136 0.011008733883500099182 0.017835032194852828979 0.025161867961287498474 0.020112624391913414001 0.021513784304261207581 0.029746571555733680725 0.027123214676976203918 0.025161867961287498474 0.021513784304261207581 0.018489036709070205688 0.020112624391913414001 0.027123214676976203918 0.021513784304261207581 0.055315691977739334106 0.049543190747499465942 0.047419950366020202637 0.044206995517015457153 0.039902947843074798584 0.039125684648752212524 0.049543190747499465942 0.044206995517015457153 0.036651808768510818481 0.047419950366020202637 0.039125684648752212524 0.044206995517015457153 0 0.0041595660150051116943 0 0.0027504975441843271255 0.0088762100785970687866 0.005022775847464799881 0.0041595660150051116943 0.0027504975441843271255 0 0 0.005022775847464799881 0.0027504975441843271255 0.0051747383549809455872 0.0077077839523553848267 0.0093286857008934020996 0.0086047034710645675659 0.0088762100785970687866 0.0108799738809466362 0.0077077839523553848267 0.0086047034710645675659 0.011956701986491680145 0.0093286857008934020996 0.0108799738809466362 0.0086047034710645675659 0 0 0.006874223705381155014 0.0020107591990381479263 0 0.0041394801810383796692 0 0.0020107591990381479263 0.0071938284672796726227 0.006874223705381155014 0.0041394801810383796692 0.0020107591990381479263 0.00827054586261510849 0.0091444980353116989136 0.0050418595783412456512 0.0049280948005616664886 0.0071938284672796726227 0.0041394801810383796692 0.0091444980353116989136 0.0049280948005616664886 0 0.0050418595783412456512 0.0041394801810383796692 0.0049280948005616664886 0.0051747383549809455872 0.0032823905348777770996 0.0027676094323396682739 0.0016954005695879459381 0 0 0.0032823905348777770996 0.0016954005695879459381 0 0.0027676094323396682739 0 0.0016954005695879459381 0.00827054586261510849 0.011226733215153217316 0.013543173670768737793 0.012148519046604633331 0.011956701986491680145 0.014946410432457923889 0.011226733215153217316 0.012148519046604633331 0.016146944835782051086 0.013543173670768737793 0.014946410432457923889 0.012148519046604633331 0.0088762100785970687866 0.0077077839523553848267 0.005022775847464799881 0.0048464816063642501831 0.0051747383549809455872 0.0027676094323396682739 0.0077077839523553848267 0.0048464816063642501831 0 0.005022775847464799881 0.0027676094323396682739 0.0048464816063642501831 0.011956701986491680145 0.011226733215153217316 0.0093286857008934020996