# vtk DataFile Version 3.0
#This file was generated by the deal.II library on 2022/4/28 at 19:02:51
ASCII
DATASET UNSTRUCTURED_GRID

POINTS 3900 double
0.24875796436507144338 0.10023456434281284577 0
0.24937898218253573557 0.10011728217140641872 0
0.24919878881300455697 0.10051963011980602491 0
0.24946585920866970465 0.10034642007987067125 0
0.25 0.10000000000000000555 0
0.24981980663046882141 0.10040234794839959787 0
0.24937898218253573557 0.10011728217140641872 0
0.24946585920866970465 0.10034642007987067125 0
0.24963961326093767057 0.10080469589679919018 0
0.24919878881300455697 0.10051963011980602491 0
0.24981980663046882141 0.10040234794839959787 0
0.24946585920866970465 0.10034642007987067125 0
0.2343749999999997502 0.087500000000000160982 0
0.22864504895089865499 0.086654626311376548031 0
0.23223431883779849239 0.082168038952751612514 0
0.22912791185913153336 0.083381776842752053369 0
0.22291509790179755979 0.08580925262275293508 0
0.22650436778869742493 0.081322665264127999563 0
0.22864504895089865499 0.086654626311376548031 0
0.22912791185913153336 0.083381776842752053369 0
0.23009363767559726233 0.076836077905503064045 0
0.23223431883779849239 0.082168038952751612514 0
0.22650436778869742493 0.081322665264127999563 0
0.22912791185913153336 0.083381776842752053369 0
0.2499999999999997502 0.075000000000000011102 0
0.2387316610132200756 0.06606352758092617905 0
0.24999999999999961142 0.0625 0
0.24248777400881324495 0.060709018387284117979 0
0.22746332202644042875 0.057127055161852360876 0
0.23873166101321996457 0.053563527580926181826 0
0.2387316610132200756 0.06606352758092617905 0
0.24248777400881324495 0.060709018387284117979 0
0.2499999999999995004 0.050000000000000002776 0
0.24999999999999961142 0.0625 0
0.23873166101321996457 0.053563527580926181826 0
0.24248777400881324495 0.060709018387284117979 0
0.2155629046001995841 0.022984688270748648842 0
0.2215131133133200203 0.040055871716300504859 0
0.21107449681276030384 0.040497097685076324791 0
0.21653743855065368806 0.04604041684400166784 0
0.22746332202644042875 0.057127055161852360876 0
0.21702470552588071229 0.057568281130628173869 0
0.2215131133133200203 0.040055871716300504859 0
0.21653743855065368806 0.04604041684400166784 0
0.20658608902532102358 0.058009507099403993802 0
0.21107449681276030384 0.040497097685076324791 0
0.21702470552588071229 0.057568281130628173869 0
0.21653743855065368806 0.04604041684400166784 0
0.40936695913233606126 0.18857666100120618058 0
0.36959275290649962198 0.17754216942174083638 0
0.38233996573429995802 0.15737907915300558548 0
0.36483282604975436625 0.16042194538276222104 0
0.32981854668066312719 0.16650767784227546442 0
0.34256575950846351875 0.14634458757354024128 0
0.36959275290649962198 0.17754216942174083638 0
0.36483282604975436625 0.16042194538276222104 0
0.3553129723362639103 0.12618149730480499038 0
0.38233996573429995802 0.15737907915300558548 0
0.34256575950846351875 0.14634458757354024128 0
0.36483282604975436625 0.16042194538276222104 0
0.24218749999999988898 0.093750000000000083267 0
0.24414062499999991673 0.095312500000000063838 0
0.24269556961609059509 0.095949622037307447098 0
0.24382829641072703564 0.096258081358204974909 0
0.24609374999999994449 0.096875000000000044409 0
0.24464869461609062284 0.097512122037307413791 0
0.24414062499999991673 0.095312500000000063838 0
0.24382829641072703564 0.096258081358204974909 0
0.2432036392321813012 0.098149244074614797051 0
0.24269556961609059509 0.095949622037307447098 0
0.24464869461609062284 0.097512122037307413791 0
0.24382829641072703564 0.096258081358204974909 0
0.24545352931547706477 0.10457071709510207258 0
0.24434037007064585145 0.10293921161544940246 0
0.24627753988546252639 0.10277574071223732899 0
0.24526076353224657289 0.10228639585342380602 0
0.24322721082581461038 0.10130770613579673234 0
0.24516438064063128532 0.10114423523258467275 0
0.24434037007064585145 0.10293921161544940246 0
0.24526076353224657289 0.10228639585342380602 0
0.24710155045544796026 0.10098076432937259928 0
0.24627753988546252639 0.10277574071223732899 0
0.24516438064063128532 0.10114423523258467275 0
0.24526076353224657289 0.10228639585342380602 0
0.25140143694226474436 0.10554120316742160446 0
0.25030386901064000105 0.10443942979365666845 0
0.25109673620039757447 0.10401617287605885442 0
0.25046659115993680222 0.10379000072400314247 0
0.24920630107901525774 0.10333765641989174633 0
0.24999916826877283116 0.10291439950229391842 0
0.25030386901064000105 0.10443942979365666845 0
0.25046659115993680222 0.10379000072400314247 0
0.25079203545853040458 0.10249114258469610439 0
0.25109673620039757447 0.10401617287605885442 0
0.24999916826877283116 0.10291439950229391842 0
0.25046659115993680222 0.10379000072400314247 0
0.24804687499999997224 0.09843750000000002498 0
0.24716026775105884306 0.098664656165062009086 0
0.24707031249999994449 0.097656250000000027756 0
0.2468047618340392102 0.098068104110041354193 0
0.24627366050211771387 0.098891812330123993191 0
0.2461837052510588153 0.097883406165062025739 0
0.24716026775105884306 0.098664656165062009086 0
0.2468047618340392102 0.098068104110041354193 0
0.24609374999999994449 0.096875000000000044409 0
0.24707031249999994449 0.097656250000000027756 0
0.2461837052510588153 0.097883406165062025739 0
0.2468047618340392102 0.098068104110041354193 0
0.23475601046134153549 0.11358597615492417587 0
0.23307501631890542582 0.10955031977816412359 0
0.23744427630455863798 0.10969807253095847921 0
0.23542752492852883628 0.10830360282110701453 0
0.23139402217646931614 0.10551466340140405742 0
0.23576328216212252831 0.10566241615419842692 0
0.23307501631890542582 0.10955031977816412359 0
0.23542752492852883628 0.10830360282110701453 0
0.24013254214777574047 0.10581016890699279642 0
0.23744427630455863798 0.10969807253095847921 0
0.23576328216212252831 0.10566241615419842692 0
0.23542752492852883628 0.10830360282110701453 0
0.2499999999999995004 0.050000000000000002776 0
0.23873166101321996457 0.053563527580926181826 0
0.23278145230009955613 0.036492344135374325809 0
0.23100874220887981925 0.043370581144200337498 0
0.22746332202644042875 0.057127055161852360876 0
0.2215131133133200203 0.040055871716300504859 0
0.23873166101321996457 0.053563527580926181826 0
0.23100874220887981925 0.043370581144200337498 0
0.2155629046001995841 0.022984688270748648842 0
0.23278145230009955613 0.036492344135374325809 0
0.2215131133133200203 0.040055871716300504859 0
0.23100874220887981925 0.043370581144200337498 0
0.25148825861921247915 0.10095319657540888225 0
0.25226009186624775982 0.10100338084659005178 0
0.25114014703887144186 0.10172216958005249332 0
0.25177073973034197474 0.10149930142595874061 0
0.25303192511328304048 0.1010535651177712213 0
0.25191198028590672253 0.10177235385123366285 0
0.25226009186624775982 0.10100338084659005178 0
0.25177073973034197474 0.10149930142595874061 0
0.25079203545853040458 0.10249114258469610439 0
0.25114014703887144186 0.10172216958005249332 0
0.25191198028590672253 0.10177235385123366285 0
0.25177073973034197474 0.10149930142595874061 0
0.25 0.10000000000000000555 0
0.25026054710957967853 0.10041241532529254776 0
0.24981980663046882141 0.10040234794839959787 0
0.25005356916003235179 0.10054317551579476653 0
0.25052109421915935705 0.10082483065058510385 0
0.25008035374004849993 0.10081476327369215396 0
0.25026054710957967853 0.10041241532529254776 0
0.25005356916003235179 0.10054317551579476653 0
0.24963961326093767057 0.10080469589679919018 0
0.24981980663046882141 0.10040234794839959787 0
0.25008035374004849993 0.10081476327369215396 0
0.25005356916003235179 0.10054317551579476653 0
0.2499999999999997502 0.075000000000000011102 0
0.24004681883779849239 0.075918038952751537574 0
0.2387316610132200756 0.06606352758092617905 0
0.23585231990067914709 0.069654377689118474049 0
0.23009363767559726233 0.076836077905503064045 0
0.22877847985101884554 0.066981566533677705522 0
0.24004681883779849239 0.075918038952751537574 0
0.23585231990067914709 0.069654377689118474049 0
0.22746332202644042875 0.057127055161852360876 0
0.2387316610132200756 0.06606352758092617905 0
0.22877847985101884554 0.066981566533677705522 0
0.23585231990067914709 0.069654377689118474049 0
0.24999999999999988898 0.087500000000000008327 0
0.24609374999999988898 0.090625000000000038858 0
0.24218749999999983347 0.087500000000000077716 0
0.24218749999999986122 0.089583333333333417525 0
0.24218749999999988898 0.093750000000000083267 0
0.23828124999999983347 0.090625000000000122125 0
0.24609374999999988898 0.090625000000000038858 0
0.24218749999999986122 0.089583333333333417525 0
0.2343749999999997502 0.087500000000000160982 0
0.24218749999999983347 0.087500000000000077716 0
0.23828124999999983347 0.090625000000000122125 0
0.24218749999999986122 0.089583333333333417525 0
0.23798336357806548769 0.099767521965353850311 0
0.24060528720194004904 0.10053761405057529132 0
0.23905795286292061408 0.10278884543617332337 0
0.24044770551721861285 0.10229513233604779765 0
0.24322721082581461038 0.10130770613579673234 0
0.24167987648679517543 0.10355893752139476438 0
0.24060528720194004904 0.10053761405057529132 0
0.24044770551721861285 0.10229513233604779765 0
0.24013254214777574047 0.10581016890699279642 0
0.23905795286292061408 0.10278884543617332337 0
0.24167987648679517543 0.10355893752139476438 0
0.24044770551721861285 0.10229513233604779765 0
0.2343749999999997502 0.087500000000000160982 0
0.2421874999999997502 0.081250000000000086042 0
0.24218749999999983347 0.087500000000000077716 0
0.24479166666666643537 0.083333333333333384219 0
0.2499999999999997502 0.075000000000000011102 0
0.24999999999999983347 0.081250000000000016653 0
0.2421874999999997502 0.081250000000000086042 0
0.24479166666666643537 0.083333333333333384219 0
0.24999999999999988898 0.087500000000000008327 0
0.24218749999999983347 0.087500000000000077716 0
0.24999999999999983347 0.081250000000000016653 0
0.24479166666666643537 0.083333333333333384219 0
0.24999999999999994449 0.09375 0
[...]
POINT_DATA 3900
SCALARS solution double 1
LOOKUP_TABLE default
0.0025929501280188560486 0.0021696542389690876007 0.0029377341270446777344 0.002005553804337978363 0 0.0023554903455078601837 0.0021696542389690876007 0.002005553804337978363 0.0027559772133827209473 0.0029377341270446777344 0.0023554903455078601837 0.002005553804337978363 0.0051977317780256271362 0.0063627487979829311371 0.0049348175525665283203 0.0057322052307426929474 0.0072322706691920757294 0.0059557692147791385651 0.0063627487979829311371 0.0057322052307426929474 0.004707475658506155014 0.0049348175525665283203 0.0059557692147791385651 0.0057322052307426929474 0 0.0022188450675457715988 0 0.0013350574299693107605 0.0034068815875798463821 0.0016901814378798007965 0.0022188450675457715988 0.0013350574299693107605 0 0 0.0016901814378798007965 0.0013350574299693107605 0.0019427423831075429916 0.0028424840420484542847 0.0036450959742069244385 0.0037015986163169145584 0.0034068815875798463821 0.0046674045734107494354 0.0028424840420484542847 0.0037015986163169145584 0.0056749959476292133331 0.0036450959742069244385 0.0046674045734107494354 0.0037015986163169145584 0.043351784348487854004 0.03920658305287361145 0.036188352853059768677 0.035669375211000442505 0.034229133278131484985 0.031266760081052780151 0.03920658305287361145 0.035669375211000442505 0.028119735419750213623 0.036188352853059768677 0.031266760081052780151 0.035669375211000442505 0.0039481180720031261444 0.0035212587099522352219 0.00434729037806391716 0.0038817040622234344482 0.0028958839830011129379 0.0039615896530449390411 0.0035212587099522352219 0.0038817040622234344482 0.0047971047461032867432 0.00434729037806391716 0.0039615896530449390411 0.0038817040622234344482 0.0073285517282783985138 0.0067598354071378707886 0.0061303903348743915558 0.0059864255599677562714 0.0061446600593626499176 0.0054740118794143199921 0.0067598354071378707886 0.0059864255599677562714 0.0043742512352764606476 0.0061303903348743915558 0.0054740118794143199921 0.0059864255599677562714 0.0077175484038889408112 0.0069426684640347957611 0.0066974372602999210358 0.0062647592276334762573 0.0058467215858399868011 0.0056359986774623394012 0.0069426684640347957611 0.0062647592276334762573 0.0051301773637533187866 0.0066974372602999210358 0.0056359986774623394012 0.0062647592276334762573 0.0020768761169165372849 0.0029739090241491794586 0.0025889258831739425659 0.0028551274444907903671 0.0035631100181490182877 0.0032627545297145843506 0.0029739090241491794586 0.0028551274444907903671 0.0028958839830011129379 0.0025889258831739425659 0.0032627545297145843506 0.0028551274444907903671 0.012523079290986061096 0.011393608525395393372 0.010957739315927028656 0.010624186135828495026 0.010274514555931091309 0.0097090573981404304504 0.011393608525395393372 0.010624186135828495026 0.0089538479223847389221 0.010957739315927028656 0.0097090573981404304504 0.010624186135828495026 0 0.0016901814378798007965 0.0016853914130479097366 0.0021751297172158956528 0.0034068815875798463821 0.0028424840420484542847 0.0016901814378798007965 0.0021751297172158956528 0.0019427423831075429916 0.0016853914130479097366 0.0028424840420484542847 0.0021751297172158956528 0.0037333932705223560333 0.0044566295109689235687 0.0046130702830851078033 0.0044549419544637203217 0.0047795055434107780457 0.0049612657167017459869 0.0044566295109689235687 0.0044549419544637203217 0.0051301773637533187866 0.0046130702830851078033 0.0049612657167017459869 0.0044549419544637203217 0 0.0024301609955728054047 0.0023554903455078601837 0.0021464668679982423782 0.0029147146269679069519 0.0031362604349851608276 0.0024301609955728054047 0.0021464668679982423782 0.0027559772133827209473 0.0023554903455078601837 0.0031362604349851608276 0.0021464668679982423782 0 0.0025137495249509811401 0.0022188450675457715988 0.0029624975286424160004 0.004707475658506155014 0.0039909668266773223877 0.0025137495249509811401 0.0029624975286424160004 0.0034068815875798463821 0.0022188450675457715988 0.0039909668266773223877 0.0029624975286424160004 0 0.0017969788750633597374 0.0029320402536541223526 0.0031905523501336574554 0.0039481180720031261444 0.0046926783397793769836 0.0017969788750633597374 0.0031905523501336574554 0.0051977317780256271362 0.0029320402536541223526 0.0046926783397793769836 0.0031905523501336574554 0.0071211596950888633728 0.0067272456362843513489 0.0080118561163544654846 0.0073996563442051410675 0.0061446600593626499176 0.0077345129102468490601 0.0067272456362843513489 0.0073996563442051410675 0.0089538479223847389221 0.0080118561163544654846 0.0077345129102468490601 0.0073996563442051410675 0.0051977317780256271362 0.0023408734705299139023 0.0029320402536541223526 0.0017004826804623007774 0 0 0.0023408734705299139023 0.0017004826804623007774 0 0.0029320402536541223526 0 0.0017004826804623007774 0 0.0013340235454961657524 0.0022040938492864370346 0.002370161004364490509 0.0028958839830011129379 0.0035212587099522352219 0.0013340235454961657524 0.002370161004364490509 0.0039481180720031261444 0.0022040938492864370346 0.0035212587099522352219 0.002370161004364490509 0.0029147146269679069519 0.00387892918661236763 0.0031362604349851608276 0.0032604495063424110413 0.004165129736065864563 0.0038343002088367938995 0.00387892918661236763 0.0032604495063424110413 0.0027559772133827209473 0.0031362604349851608276 0.0038343002088367938995 0.0032604495063424110413 0.0039481180720031261444 0.0017969788750633597374 0.0022040938492864370346 0.001286744140088558197 0 0 0.0017969788750633597374 0.001286744140088558197 0 0.0022040938492864370346 0 0.001286744140088558197 0 0.00097984645981341600418 0.0016195406205952167511 0.001713413512334227562 0.0020768761169165372849 0.0025889258831739425659 0.00097984645981341600418 0.001713413512334227562 0.0028958839830011129379 0.0016195406205952167511 0.0025889258831739425659 0.001713413512334227562 0.0027559772133827209473 0.0036155716516077518463 0.0029377341270446777344 0.0029904837720096111298 0.003755006939172744751 0.0034540214110165834427 0.0036155716516077518463 0.0029904837720096111298 0.0025929501280188560486 0.0029377341270446777344 0.0034540214110165834427 0.0029904837720096111298 0.0028958839830011129379 0.0013340235454961657524 0.0016195406205952167511 0.00094403111143037676811 0 0 0.0013340235454961657524 0.00094403111143037676811 0 0.0016195406205952167511 0 0.00094403111143037676811 0 0.00072679069126024842262 0.0011826362460851669312 0.0012034685350954532623 0.0014422402018681168556 0.0019009271636605262756 0.00072679069126024842262 0.0012034685350954532623 0.0020768761169165372849 0.0011826362460851669312 0.0019009271636605262756 0.0012034685350954532623 0.0018933922983705997467 0.0026197996921837329865 0.0015524234622716903687 0.0018135701538994908333 0.0029147146269679069519 0.0024301609955728054047 0.0026197996921837329865 0.0018135701538994908333 0 0.0015524234622716903687 0.0024301609955728054047 0.0018135701538994908333 0.0020768761169165372849 0.00097984645981341600418 0.0011826362460851669312 0.00067941256565973162651 0 0 0.00097984645981341600418 0.00067941256565973162651 0 0.0011826362460851669312 0 0.00067941256565973162651 0 0 0.00086290633771568536758 0.00066175305983051657677 0 0.0011962723219767212868 0 0.00066175305983051657677 0.0014422402018681168556 0.00086290633771568536758 0.0011962723219767212868 0.00066175305983051657677 0.0014422402018681168556 0.0022023476194590330124 0.0022727050818502902985 0.0022208956070244312286 0.0025929501280188560486 0.0028213176410645246506 0.0022023476194590330124 0.0022208956070244312286 0.002668529050424695015 0.0022727050818502902985 0.0028213176410645246506 0.0022208956070244312286 0.0014422402018681168556 0.00072679069126024842262 0.00086290633771568536758 0.00048177229473367333412 0 0 0.00072679069126024842262 0.00048177229473367333412 0 0.00086290633771568536758 0 0.00048177229473367333412 0.014031365513801574707 0.012390820309519767761 0.013380537740886211395 0.012362251989543437958 0.010274514555931091309 0.011393608525395393372 0.012390820309519767761 0.012362251989543437958 0.012523079290986061096 0.013380537740886211395 0.011393608525395393372 0.012362251989543437958 0.012523079290986061096 0.010957739315927028656 0.011612675152719020844 0.010707009583711624146 0.0089538479223847389221 0.009723859839141368866 0.010957739315927028656 0.010707009583711624146 0.010444620624184608459 0.011612675152719020844 0.009723859839141368866 0.010707009583711624146 0.0039481180720031261444 0.0055686128325760364532 0.0046926783397793769836 0.0053284191526472568512 0.0071211596950888633728 0.0059449425898492336273 0.0055686128325760364532 0.0053284191526472568512 0.0051977317780256271362 0.0046926783397793769836 0.0059449425898492336273 0.0053284191526472568512 0.002668529050424695015 0.0024650236591696739197 0.0022727050818502902985 0.0020715864375233650208 0.0020768761169165372849 0.0019009271636605262756 0.0024650236591696739197 0.0020715864375233650208 0.0014422402018681168556 0.0022727050818502902985 0.0019009271636605262756 0.0020715864375233650208 0.003755006939172744751 0.0036155716516077518463 0.0041638836264610290527 0.0035321831237524747849 0.0027559772133827209473 0.0038343002088367938995 0.0036155716516077518463 0.0035321831237524747849 0.004165129736065864563 0.0041638836264610290527 0.0038343002088367938995 0.0035321831237524747849 0.0058467215858399868011 0.0050969384610652923584 0.0052875424735248088837 0.0046097640879452228546 0.003755006939172744751 0.0041638836264610290527 0.0050969384610652923584 0.0046097640879452228546 0.004165129736065864563 0.0052875424735248088837 0.0041638836264610290527 0.0046097640879452228546 0.0029147146269679069519 0.0036135979462414979935 0.00387892918661236763 0.0035207499749958515167 0.0037333932705223560333 0.0040708975866436958313 0.0036135979462414979935 0.0035207499749958515167 0.004165129736065864563 0.00387892918661236763 0.0040708975866436958313 0.0035207499749958515167 0.0071211596950888633728 0.0055686128325760364532 0.0061321263201534748077 0.0052948966622352600098 0.0039481180720031261444 0.00434729037806391716 0.0055686128325760364532 0.0052948966622352600098 0.0047971047461032867432 0.0061321263201534748077 0.00434729037806391716 0.0052948966622352600098 0.002668529050424695015 0.0037270965985953807831 0.0032885002437978982925 0.0035128640010952949524 0.0043742512352764606476 0.0040255123749375343323 0.0037270965985953807831 0.0035128640010952949524 0.0035631100181490182877 0.0032885002437978982925 0.0040255123749375343323 0.0035128640010952949524 0.0037333932705223560333 0.0036135979462414979935 0.0031156362965703010559 0.0028370639774948358536 0.0029147146269679069519 0.0026197996921837329865 0.0036135979462414979935 0.0028370639774948358536 0.0018933922983705997467 0.0031156362965703010559 0.0026197996921837329865 0.0028370639774948358536 0.002668529050424695015 0.0032885002437978982925 0.0024650236591696739197 0.0027960336301475763321 0.0035631100181490182877 0.0029739090241491794586 0.0032885002437978982925 0.0027960336301475763321 0.0020768761169165372849 0.0024650236591696739197 0.0029739090241491794586 0.0027960336301475763321 0.0061446600593626499176 0.0050683673471212387085 0.0054740118794143199921 0.0047529963776469230652 0.0035631100181490182877 0.0040255123749375343323 0.0050683673471212387085 0.0047529963776469230652 0.0043742512352764606476 0.0054740118794143199921 0.0040255123749375343323 0.0047529963776469230652 0.0035631100181490182877 0.0050683673471212387085 0.0043224100954830646515 0.0048812897875905036926 0.0061446600593626499176 0.005512648262083530426 0.0050683673471212387085 0.0048812897875905036926 0.0047971047461032867432 0.0043224100954830646515 0.005512648262083530426 0.0048812897875905036926 0.0069387149997055530548 0.0080396635457873344421 0.0084960516542196273804 0.0085078533738851547241 0.00884762592613697052 0.0092978822067379951477 0.0080396635457873344421 0.0085078533738851547241 0.0097016096115112304688 0.0084960516542196273804 0.0092978822067379951477 0.0085078533738851547241 0.0037333932705223560333 0.0046130702830851078033 0.0040708975866436958313 0.0042910184711217880249 0.0051301773637533187866 0.0048776846379041671753 0.0046130702830851078033 0.0042910184711217880249 0.004165129736065864563 0.0040708975866436958313 0.0048776846379041671753 0.0042910184711217880249 0.012411475181579589844 0.010673738084733486176 0.010322446934878826141 0.0097848894074559211731 0.0085270237177610397339 0.0084088379517197608948 0.010673738084733486176 0.0097848894074559211731 0.0082780541852116584778 0.010322446934878826141 0.0084088379517197608948 0.0097848894074559211731 0.0047795055434107780457 0.0044566295109689235687 0.004212518688291311264 0.0039265672676265239716 0.0037333932705223560333 0.0036225400399416685104 0.0044566295109689235687 0.0039265672676265239716 0.003335379529744386673 0.004212518688291311264 0.0036225400399416685104 0.0039265672676265239716 0.0046298769302666187286 0.0048494390211999416351 0.0056071719154715538025 0.0052744993008673191071 0.0049494747072458267212 0.0056497440673410892487 0.0048494390211999416351 0.0052744993008673191071 0.0063967518508434295654 0.0056071719154715538025 0.0056497440673410892487 0.0052744993008673191071 0.0058467215858399868011 0.0067246784456074237823 0.0051289205439388751984 0.0058507998473942279816 0.0073285517282783985138 0.0061303903348743915558 0.0067246784456074237823 0.0058507998473942279816 0.0043742512352764606476 0.0051289205439388751984 0.0061303903348743915558 0.0058507998473942279816 0 0.00053697696421295404434 0.00072704930789768695831 0.00077884306665509939194 0.00093126652063801884651 0.0011811446165665984154 0.00053697696421295404434 0.00077884306665509939194 0.0014054878847673535347 0.00072704930789768695831 0.0011811446165665984154 0.00077884306665509939194 0.010444620624184608459 0.009723859839141368866 0.0091136284172534942627 0.0089408224448561668396 0.0089538479223847389221 0.0082804905250668525696 0.009723859839141368866 0.0089408224448561668396 0.0073285517282783985138 0.0091136284172534942627 0.0082804905250668525696 0.0089408224448561668396 0.0063967518508434295654 0.0077677373774349689484 0.006726568564772605896 0.0074234176427125930786 0.00884762592613697052 0.0080396635457873344421 0.0077677373774349689484 0.0074234176427125930786 0.0069387149997055530548 0.006726568564772605896 0.0080396635457873344421 0.0074234176427125930786 0.0061446600593626499176 0.0067598354071378707886 0.0077345129102468490601 0.0075028892606496810913 0.0073285517282783985138 0.0082804905250668525696 0.0067598354071378707886 0.0075028892606496810913 0.0089538479223847389221 0.0077345129102468490601 0.0082804905250668525696 0.0075028892606496810913 0.0014054878847673535347 0.0011811446165665984154 0.0020785955712199211121 0.0016269906191155314445 0.00093126652063801884651 0.0017816269537433981895 0.0011811446165665984154 0.0016269906191155314445 0.0024807897862046957016 0.0020785955712199211121 0.0017816269537433981895 0.0016269906191155314445 0.0058266213163733482361 0.0071816798299551010132 0.0059157367795705795288 0.0067998990416526794434 0.0085270237177610397339 0.0073776296339929103851 0.0071816798299551010132 0.0067998990416526794434 0.0059936596080660820007 0.0059157367795705795288 0.0073776296339929103851 0.0067998990416526794434 0 0.00085273489821702241898 0.0010001130867749452591 0.0010853934800252318382 0.0014054878847673535347 0.0016878055175766348839 0.00085273489821702241898 0.0010853934800252318382 0.0018933922983705997467 0.0010001130867749452591 0.0016878055175766348839 0.0010853934800252318382 0.0018933922983705997467 0.0015524234622716903687 0.0010001130867749452591 0.00069009786238893866539 0 0 0.0015524234622716903687 0.00069009786238893866539 0 0.0010001130867749452591 0 0.00069009786238893866539 0.0018933922983705997467 0.0016878055175766348839 0.002867629053071141243 0.0022558155469596385956 0.0014054878847673535347 0.002544070826843380928 0.0016878055175766348839 0.0022558155469596385956 0.003335379529744386673 0.002867629053071141243 0.002544070826843380928 0.0022558155469596385956 0.0037333932705223560333 0.0031156362965703010559 0.0036225400399416685104 0.0029916984494775533676 0.0018933922983705997467 0.002867629053071141243 0.0031156362965703010559 0.0029916984494775533676 0.003335379529744386673 0.0036225400399416685104 0.002867629053071141243 0.0029916984494775533676 0 0.00045629829401150345802 0 0.0003110495454166084528 0.00093126652063801884651 0.00053697696421295404434 0.00045629829401150345802 0.0003110495454166084528 0 0 0.00053697696421295404434 0.0003110495454166084528 0 0 0.00085273489821702241898 0.0005044544232077896595 0 0.00072704930789768695831 0 0.0005044544232077896595 0.0014054878847673535347 0.00085273489821702241898 0.00072704930789768695831 0.0005044544232077896595 0.0024807897862046957016 0.0017816269537433981895 0.0019029763061553239822 0.001574698369950056076 0.00093126652063801884651 0.0012118623126298189163 0.0017816269537433981895 0.001574698369950056076 0.0013837679289281368256 0.0019029763061553239822 0.0012118623126298189163 0.001574698369950056076 0.0077175484038889408112 0.009643794037401676178 0.0080590397119522094727 0.0090731689706444740295 0.011077968403697013855 0.0098164705559611320496 0.009643794037401676178 0.0090731689706444740295 0.0082596074789762496948 0.0080590397119522094727 0.0098164705559611320496 0.0090731689706444740295 0.014203301630914211273 0.016964957118034362793 0.015712669119238853455 0.016872411593794822693 0.019307313486933708191 0.018085801973938941956 0.016964957118034362793 0.016872411593794822693 0.016933029517531394958 0.015712669119238853455 0.018085801973938941956 0.016872411593794822693 0.0024807897862046957016 0.0029610134661197662354 0.0020785955712199211121 0.0024263029918074607849 0.003335379529744386673 0.002544070826843380928 0.0029610134661197662354 0.0024263029918074607849 0.0014054878847673535347 0.0020785955712199211121 0.002544070826843380928 0.0024263029918074607849 0.010444620624184608459 0.0091136284172534942627 0.0095123974606394767761 0.0087316958233714103699 0.0073285517282783985138 0.0078585334122180938721 0.0091136284172534942627 0.0087316958233714103699 0.0082596074789762496948 0.0095123974606394767761 0.0078585334122180938721 0.0087316958233714103699 0 0.00064794160425662994385 0 0.0004492988227866590023 0.0013837679289281368256 0.00076779176015406847 0.00064794160425662994385 0.0004492988227866590023 0 0 0.00076779176015406847 0.0004492988227866590023 0 0.00076779176015406847 0.00045629829401150345802 0.00079930282663553953171 0.0013837679289281368256 0.0012118623126298189163 0.00076779176015406847 0.00079930282663553953171 0.00093126652063801884651 0.00045629829401150345802 0.0012118623126298189163 0.00079930282663553953171 0.010444620624184608459 0.0095123974606394767761 0.010692037642002105713 0.0098735569044947624207 0.0082596074789762496948 0.0098164705559611320496 0.0095123974606394767761 0.0098735569044947624207 0.011077968403697013855 0.010692037642002105713 0.0098164705559611320496 0.0098735569044947624207 0.0069387149997055530548 0.0084960516542196273804 0.007331632077693939209 0.0081108678132295608521 0.0097016096115112304688 0.0088305501267313957214 0.0084960516542196273804 0.0081108678132295608521 0.0077175484038889408112 0.007331632077693939209 0.0088305501267313957214 0.0081108678132295608521 0.0069387149997055530548 0.0061501660384237766266 0.0060720830224454402924 0.0055853258818387985229 0.0051301773637533187866 0.0049612657167017459869 0.0061501660384237766266 0.0055853258818387985229 0.0047795055434107780457 0.0060720830224454402924 0.0049612657167017459869 0.0055853258818387985229 0.0098208263516426086426 0.0081500876694917678833 0.0087535316124558448792 0.0078933741897344589233 0.0063164033927023410797 0.0067582079209387302399 0.0081500876694917678833 0.0078933741897344589233 0.0072322706691920757294 0.0087535316124558448792 0.0067582079209387302399 0.0078933741897344589233 0.005804713349789381