# vtk DataFile Version 3.0
#This file was generated by the deal.II library on 2022/4/28 at 19:02:51
ASCII
DATASET UNSTRUCTURED_GRID

POINTS 4896 double
0.22625897952269541369 0.072707305343223060934 0
0.23236865847919910277 0.074437824447730477351 0
0.22830102790911527277 0.078720034483150208571 0
0.23169346441797777914 0.077869470839512774929 0
0.23847833743570279186 0.07616834355223787989 0
0.2344107068656189341 0.080450553587657624988 0
0.23236865847919910277 0.074437824447730477351 0
0.23169346441797777914 0.077869470839512774929 0
0.2303430762955351041 0.084732763623077370085 0
0.22830102790911527277 0.078720034483150208571 0
0.2344107068656189341 0.080450553587657624988 0
0.23169346441797777914 0.077869470839512774929 0
0.24193349111044479272 0.083490073846583731654 0
0.23994260622315410902 0.086507774098420503472 0
0.23613828370298994841 0.08411141873483055087 0
0.23674276291394777405 0.085916103939972787717 0
0.23795172133586342533 0.089525474350257261413 0
0.23414739881569926472 0.08712911898666730881 0
0.23994260622315410902 0.086507774098420503472 0
0.23674276291394777405 0.085916103939972787717 0
0.2303430762955351041 0.084732763623077370085 0
0.23613828370298994841 0.08411141873483055087 0
0.23414739881569926472 0.08712911898666730881 0
0.23674276291394777405 0.085916103939972787717 0
0.22509603685083737212 0.092020442181112618862 0
0.22037169728898836629 0.085852604769228874071 0
0.22771955657318623811 0.088376602902094994474 0
0.22369549029117061223 0.085479324387178368116 0
0.21564735772713938822 0.079684767357345115402 0
0.22299521701133723228 0.082208765490211249682 0
0.22037169728898836629 0.085852604769228874071 0
0.22369549029117061223 0.085479324387178368116 0
0.2303430762955351041 0.084732763623077370085 0
0.22771955657318623811 0.088376602902094994474 0
0.22299521701133723228 0.082208765490211249682 0
0.22369549029117061223 0.085479324387178368116 0
0.20015647007476000674 0.073763042655317204166 0
0.20790191390094969748 0.076723905006331166723 0
0.20320323503738002557 0.081475100045460449594 0
0.20735127593396648904 0.080878322482755338196 0
0.21564735772713938822 0.079684767357345115402 0
0.21094867886356971631 0.08443596239647441215 0
0.20790191390094969748 0.076723905006331166723 0
0.20735127593396648904 0.080878322482755338196 0
0.20625000000000001665 0.089187157435603695022 0
0.20320323503738002557 0.081475100045460449594 0
0.21094867886356971631 0.08443596239647441215 0
0.20735127593396648904 0.080878322482755338196 0
0.2453124999999999889 0.098679983595868436819 0
0.24609375 0.099839991797934221629 0
0.2445312499999999778 0.099839991797934221629 0
0.24531250000000001665 0.10022666119862282119 0
0.2468750000000000111 0.10100000000000000644 0
0.2453124999999999889 0.10100000000000000644 0
0.24609375 0.099839991797934221629 0
0.24531250000000001665 0.10022666119862282119 0
0.24374999999999999445 0.10100000000000000644 0
0.2445312499999999778 0.099839991797934221629 0
0.2453124999999999889 0.10100000000000000644 0
0.24531250000000001665 0.10022666119862282119 0
0.2507812500000000111 0.100500000000000006 0
0.25117187500000004441 0.10075000000000000622 0
0.2503906249999999778 0.10075000000000000622 0
0.2507812500000000111 0.10083333333333333037 0
0.2515625000000000222 0.10100000000000000644 0
0.2507812500000000111 0.10100000000000000644 0
0.25117187500000004441 0.10075000000000000622 0
0.2507812500000000111 0.10083333333333333037 0
0.25 0.10100000000000000644 0
0.2503906249999999778 0.10075000000000000622 0
0.2507812500000000111 0.10100000000000000644 0
0.2507812500000000111 0.10083333333333333037 0
0.52335633549483184801 0.11530595721686530408 0
0.48086124975719957142 0.11912597972254990175 0
0.48584430580202891958 0.094976852167234532276 0
0.47001825854120832249 0.10429990218756785003 0
0.43836616401956735034 0.12294600222823449942 0
0.4433492200643966985 0.098796874672919116067 0
0.48086124975719957142 0.11912597972254990175 0
0.47001825854120832249 0.10429990218756785003 0
0.44833227610922599116 0.074647747117603746592 0
0.48584430580202891958 0.094976852167234532276 0
0.4433492200643966985 0.098796874672919116067 0
0.47001825854120832249 0.10429990218756785003 0
0.25228243848515680137 0.095312500000000022204 0
0.2543950687432203206 0.094727323817659164762 0
0.25325059467922506062 0.096597034193227168664 0
0.25433629611991132036 0.095778738673924210256 0
0.25650769900128383982 0.094142147635318321197 0
0.25536322493728857985 0.096011858010886325099 0
0.2543950687432203206 0.094727323817659164762 0
0.25433629611991132036 0.095778738673924210256 0
0.25421875087329326437 0.097881568386454315123 0
0.25325059467922506062 0.096597034193227168664 0
0.25536322493728857985 0.096011858010886325099 0
0.25433629611991132036 0.095778738673924210256 0
0.26852837247196692516 0.11458226589421813268 0
0.27020168623598345148 0.11121309948569249593 0
0.27301081784362679628 0.11470838222827130226 0
0.27263221189575115311 0.11242023251123649252 0
0.2718749999999999778 0.10784393307716687305 0
0.27468413160764326708 0.11133921581974567938 0
0.27020168623598345148 0.11121309948569249593 0
0.27263221189575115311 0.11242023251123649252 0
0.27749326321528661188 0.11483449856232447184 0
0.27301081784362679628 0.11470838222827130226 0
0.27468413160764326708 0.11133921581974567938 0
0.27263221189575115311 0.11242023251123649252 0
0.26602129221999865072 0.086944374793534048851 0
0.26453107205633730192 0.090170971151816159406 0
0.26263004785513371919 0.088007926321779922363 0
0.26276698253431446384 0.089804473384552704895 0
0.26304085189267589762 0.093397567510098256083 0
0.2611398276914723704 0.09123452268006201904 0
0.26453107205633730192 0.090170971151816159406 0
0.26276698253431446384 0.089804473384552704895 0
0.25923880349026878767 0.089071477850025795875 0
0.26263004785513371919 0.088007926321779922363 0
0.2611398276914723704 0.09123452268006201904 0
0.26276698253431446384 0.089804473384552704895 0
0.30378710353092852614 0.11652886010753518709 0
0.30189355176546428527 0.10876443005376759676 0
0.31172073669177113864 0.11048093373982395549 0
0.30781382446118077389 0.10732062249321595859 0
0.2999999999999999889 0.10100000000000000644 0
0.30982718492630689777 0.10271650368605636516 0
0.30189355176546428527 0.10876443005376759676 0
0.30781382446118077389 0.10732062249321595859 0
0.31965436985261375114 0.10443300737211271001 0
0.31172073669177113864 0.11048093373982395549 0
0.30982718492630689777 0.10271650368605636516 0
0.30781382446118077389 0.10732062249321595859 0
0.24163249371818423805 0.10446326802674874012 0
0.24269124685909210237 0.10273163401337437328 0
0.24347249685909211347 0.1036065866325849294 0
0.24356499790606137013 0.10273772442172328379 0
0.24374999999999999445 0.10100000000000000644 0
0.2445312499999999778 0.10187495261921056255 0
0.24269124685909210237 0.10273163401337437328 0
0.24356499790606137013 0.10273772442172328379 0
0.2453124999999999889 0.10274990523842111867 0
0.24347249685909211347 0.1036065866325849294 0
0.2445312499999999778 0.10187495261921056255 0
0.24356499790606137013 0.10273772442172328379 0
0.24687963697235215665 0.1057064097257897628 0
0.24804919348617607278 0.1046473625666639734 0
0.24944333681269048597 0.10540421032111663147 0
0.24936847454179367212 0.10479891201659048694 0
0.2492187499999999889 0.10358831540753818401 0
0.25061289332651437434 0.10434516316199084207 0
0.24804919348617607278 0.1046473625666639734 0
0.24936847454179367212 0.10479891201659048694 0
0.25200703665302881529 0.10510201091644350013 0
0.24944333681269048597 0.10540421032111663147 0
0.25061289332651437434 0.10434516316199084207 0
0.24936847454179367212 0.10479891201659048694 0
0.2531249999999999889 0.10100000000000000644 0
0.25273437499999995559 0.10168975889442283256 0
0.2523437499999999778 0.10100000000000000644 0
0.2523437499999999778 0.10145983926294854793 0
0.2523437499999999778 0.10237951778884567255 0
0.251953125 0.10168975889442283256 0
0.25273437499999995559 0.10168975889442283256 0
0.2523437499999999778 0.10145983926294854793 0
0.2515625000000000222 0.10100000000000000644 0
0.2523437499999999778 0.10100000000000000644 0
0.251953125 0.10168975889442283256 0
0.2523437499999999778 0.10145983926294854793 0
0.2492187499999999889 0.10358831540753818401 0
0.25 0.10311809431825158523 0
0.25061289332651437434 0.10434516316199084207 0
0.25066901221767629027 0.10377939985098222353 0
0.2507812500000000111 0.10264787322896498645 0
0.25139414332651444095 0.10387494207270424329 0
0.25 0.10311809431825158523 0
0.25066901221767629027 0.10377939985098222353 0
0.25200703665302881529 0.10510201091644350013 0
0.25061289332651437434 0.10434516316199084207 0
0.25139414332651444095 0.10387494207270424329 0
0.25066901221767629027 0.10377939985098222353 0
0.24999999999999988898 0.087500000000000008327 0
0.24821717532257114858 0.089396649950939682805 0
0.24811601752163736645 0.086230685615876712102 0
0.24755546189613905628 0.08791822371121094104 0
0.24643435064514238042 0.091293299901879371161 0
0.24633319284420859829 0.088127335566816400458 0
0.24821717532257114858 0.089396649950939682805 0
0.24755546189613905628 0.08791822371121094104 0
0.24623203504327481617 0.084961371231753429756 0
0.24811601752163736645 0.086230685615876712102 0
0.24633319284420859829 0.088127335566816400458 0
0.24755546189613905628 0.08791822371121094104 0
0.2468750000000000111 0.10100000000000000644 0
0.24609375 0.10187495261921056255 0
0.2453124999999999889 0.10100000000000000644 0
0.24531250000000001665 0.10158330174614038643 0
0.2453124999999999889 0.10274990523842111867 0
0.2445312499999999778 0.10187495261921056255 0
0.24609375 0.10187495261921056255 0
0.24531250000000001665 0.10158330174614038643 0
0.24374999999999999445 0.10100000000000000644 0
0.2453124999999999889 0.10100000000000000644 0
0.2445312499999999778 0.10187495261921056255 0
0.24531250000000001665 0.10158330174614038643 0
0.2750000000000000222 0.10100000000000000644 0
0.2781250000000000111 0.097454879248345421816 0
0.28125 0.10100000000000000644 0
[...]
POINT_DATA 4896
SCALARS solution double 1
LOOKUP_TABLE default
0.004927712026983499527 0.0040372950024902820587 0.0052845971658825874329 0.0045078261755406856537 0.0028846145141869783401 0.0042398204095661640167 0.0040372950024902820587 0.0045078261755406856537 0.0056811403483152389526 0.0052845971658825874329 0.0042398204095661640167 0.0045078261755406856537 0.0025803358294069766998 0.0035352923441678285599 0.0042758043855428695679 0.0043358192779123783112 0.0045602549798786640167 0.0052221054211258888245 0.0035352923441678285599 0.0043358192779123783112 0.0056811403483152389526 0.0042758043855428695679 0.0052221054211258888245 0.0043358192779123783112 0.0079745566472411155701 0.0076633081771433353424 0.006846133153885602951 0.0070454855449497699738 0.0073491162620484828949 0.0066861812956631183624 0.0076633081771433353424 0.0070454855449497699738 0.0056811403483152389526 0.006846133153885602951 0.0066861812956631183624 0.0070454855449497699738 0.0080844638869166374207 0.0078289546072483062744 0.0089359674602746963501 0.0084467194974422454834 0.0073491162620484828949 0.0086390227079391479492 0.0078289546072483062744 0.0084467194974422454834 0.0098364474251866340637 0.0089359674602746963501 0.0086390227079391479492 0.0084467194974422454834 0.004006884060800075531 0.0042858947999775409698 0.0050331749953329563141 0.0047720014117658138275 0.0045074159279465675354 0.0053280256688594818115 0.0042858947999775409698 0.0047720014117658138275 0.0058105187490582466125 0.0050331749953329563141 0.0053280256688594818115 0.0047720014117658138275 0.0026123076677322387695 0.0035455010365694761276 0.0030849904287606477737 0.0030926812905818223953 0.0038216705434024333954 0.0036219311878085136414 0.0035455010365694761276 0.0030926812905818223953 0.0030879378318786621094 0.0030849904287606477737 0.0036219311878085136414 0.0030926812905818223953 0.031419146806001663208 0.031849347054958343506 0.026366673409938812256 0.028306059539318084717 0.031683955341577529907 0.026445889845490455627 0.031849347054958343506 0.028306059539318084717 0.02077174745500087738 0.026366673409938812256 0.026445889845490455627 0.028306059539318084717 0.001709382631815969944 0.0030401614494621753693 0.0027537783607840538025 0.0031951372511684894562 0.0040418156422674655914 0.0039559262804687023163 0.0030401614494621753693 0.0031951372511684894562 0.0037888011429458856583 0.0027537783607840538025 0.0039559262804687023163 0.0031951372511684894562 0.014999912120401859283 0.014286505058407783508 0.015883015468716621399 0.015061848796904087067 0.013518093153834342957 0.015179772861301898956 0.014286505058407783508 0.015061848796904087067 0.016630781814455986023 0.015883015468716621399 0.015179772861301898956 0.015061848796904087067 0.0064761172980070114136 0.0066163521260023117065 0.0055297040380537509918 0.0058665499091148376465 0.0067354436032474040985 0.0055650407448410987854 0.0066163521260023117065 0.0058665499091148376465 0.0043554240837693214417 0.0055297040380537509918 0.0055650407448410987854 0.0058665499091148376465 0.020960342139005661011 0.018975796177983283997 0.020638072863221168518 0.01942241378128528595 0.016940226778388023376 0.01871085725724697113 0.018975796177983283997 0.01942241378128528595 0.020244298502802848816 0.020638072863221168518 0.01871085725724697113 0.01942241378128528595 0.0080630918964743614197 0.0070990924723446369171 0.0073444321751594543457 0.0067475149407982826233 0.0058105187490582466125 0.0061137629672884941101 0.0070990924723446369171 0.0067475149407982826233 0.0062505621463060379028 0.0073444321751594543457 0.0061137629672884941101 0.0067475149407982826233 0.0078136650845408439636 0.0071426904760301113129 0.0076181916519999504089 0.0070136729627847671509 0.0060492986813187599182 0.0069096246734261512756 0.0071426904760301113129 0.0070136729627847671509 0.0074963280931115150452 0.0076181916519999504089 0.0069096246734261512756 0.0070136729627847671509 0.0047899233177304267883 0.0052772187627851963043 0.0045080878771841526031 0.0047119879163801670074 0.0054953806102275848389 0.0049206274561583995819 0.0052772187627851963043 0.0047119879163801670074 0.0038216705434024333954 0.0045080878771841526031 0.0049206274561583995819 0.0047119879163801670074 0.0060492986813187599182 0.0058388062752783298492 0.0069096246734261512756 0.0062642511911690235138 0.0052626798860728740692 0.0066513498313724994659 0.0058388062752783298492 0.0062642511911690235138 0.0074963280931115150452 0.0069096246734261512756 0.0066513498313724994659 0.0062642511911690235138 0 0.00078282464528456330299 0.00070827681338414549828 0.00097794423345476388931 0.0016908694524317979813 0.001487283734604716301 0.00078282464528456330299 0.00097794423345476388931 0.0013144563417881727219 0.00070827681338414549828 0.001487283734604716301 0.00097794423345476388931 0.0045074159279465675354 0.0055798720568418502808 0.0053280256688594818115 0.005544696468859910965 0.0062505621463060379028 0.0061137629672884941101 0.0055798720568418502808 0.005544696468859910965 0.0058105187490582466125 0.0053280256688594818115 0.0061137629672884941101 0.005544696468859910965 0.012275665998458862305 0.012148634530603885651 0.013691875152289867401 0.013077133335173130035 0.01199029386043548584 0.013481921516358852386 0.012148634530603885651 0.013077133335173130035 0.014864371158182621002 0.013691875152289867401 0.013481921516358852386 0.013077133335173130035 0.0067147156223654747009 0.0079877804964780807495 0.008009217679500579834 0.0082103582099080085754 0.0088890427723526954651 0.00899180583655834198 0.0079877804964780807495 0.0082103582099080085754 0.0089577632024884223938 0.008009217679500579834 0.00899180583655834198 0.0082103582099080085754 0.0014354011509567499161 0.0020833364687860012054 0.0022716855164617300034 0.0022827086504548788071 0.0026406391989439725876 0.002865812741219997406 0.0020833364687860012054 0.0022827086504548788071 0.002843601396307349205 0.0022716855164617300034 0.002865812741219997406 0.0022827086504548788071 0.0055022854357957839966 0.005126476287841796875 0.0048583615571260452271 0.0045762234367430210114 0.0045074159279465675354 0.0042898096144199371338 0.005126476287841796875 0.0045762234367430210114 0.0036794231273233890533 0.0048583615571260452271 0.0042898096144199371338 0.0045762234367430210114 0 0 0.00090960669331252574921 0.00049766455776989459991 0 0.0007550086011178791523 0 0.00049766455776989459991 0.0015885269967839121819 0.00090960669331252574921 0.0007550086011178791523 0.00049766455776989459991 0.0067147156223654747009 0.0071564861573278903961 0.0062766354531049728394 0.0065348558127880096436 0.0074963280931115150452 0.0067055672407150268555 0.0071564861573278903961 0.0065348558127880096436 0.0054953806102275848389 0.0062766354531049728394 0.0067055672407150268555 0.0065348558127880096436 0.001302228076383471489 0.00062920694472268223763 0.00075394235318526625633 0.00043984121293760836124 0 0 0.00062920694472268223763 0.00043984121293760836124 0 0.00075394235318526625633 0 0.00043984121293760836124 0.0055022854357957839966 0.0048583615571260452271 0.0059147235006093978882 0.0051023806445300579071 0.0036794231273233890533 0.0051142820157110691071 0.0048583615571260452271 0.0051023806445300579071 0.0060492986813187599182 0.0059147235006093978882 0.0051142820157110691071 0.0051023806445300579071 0 0.00079190428368747234344 0 0.00054278725292533636093 0.0016217345837503671646 0.00093853176804259419441 0.00079190428368747234344 0.00054278725292533636093 0 0 0.00093853176804259419441 0.00054278725292533636093 0.0054953806102275848389 0.0052772187627851963043 0.0062766354531049728394 0.0056827324442565441132 0.0047899233177304267883 0.0059603299014270305634 0.0052772187627851963043 0.0056827324442565441132 0.0067147156223654747009 0.0062766354531049728394 0.0059603299014270305634 0.0056827324442565441132 0.0052626798860728740692 0.004541268572211265564 0.0047441534698009490967 0.0040600127540528774261 0.0030879378318786621094 0.0036219311878085136414 0.004541268572211265564 0.0040600127540528774261 0.0038216705434024333954 0.0047441534698009490967 0.0036219311878085136414 0.0040600127540528774261 0 0.0025355117395520210266 0.0021339918021112680435 0.0021291861776262521744 0.0030879378318786621094 0.0030495158862322568893 0.0025355117395520210266 0.0021291861776262521744 0.0025406547356396913528 0.0021339918021112680435 0.0030495158862322568893 0.0021291861776262521744 0.0052626798860728740692 0.0058388062752783298492 0.004541268572211265564 0.0049220705404877662659 0.0060492986813187599182 0.005033026915043592453 0.0058388062752783298492 0.0049220705404877662659 0.0030879378318786621094 0.004541268572211265564 0.005033026915043592453 0.0049220705404877662659 0.0040418156422674655914 0.0030401614494621753693 0.0030157025903463363647 0.0026069933082908391953 0.001709382631815969944 0.0018999322783201932907 0.0030401614494621753693 0.0026069933082908391953 0.002020403742790222168 0.0030157025903463363647 0.0018999322783201932907 0.0026069933082908391953 0 0 0.00078282464528456330299 0.00055741239339113235474 0 0.00095390970818698406219 0 0.00055741239339113235474 0.0016908694524317979813 0.00078282464528456330299 0.00095390970818698406219 0.00055741239339113235474 0.0030879378318786621094 0.0035521863028407096863 0.0030495158862322568893 0.0030207952950149774551 0.0036794231273233890533 0.0034384857863187789917 0.0035521863028407096863 0.0030207952950149774551 0.0025406547356396913528 0.0030495158862322568893 0.0034384857863187789917 0.0030207952950149774551 0.002720155986025929451 0.0026671625673770904541 0.0020104516297578811646 0.0022023515775799751282 0.0025803358294069766998 0.0019976990297436714172 0.0026671625673770904541 0.0022023515775799751282 0.0013144563417881727219 0.0020104516297578811646 0.0019976990297436714172 0.0022023515775799751282 0.0014354011509567499161 0.0013959103962406516075 0.00071426585782319307327 0.0009248833521269261837 0.001302228076383471489 0.00075394235318526625633 0.0013959103962406516075 0.0009248833521269261837 0 0.00071426585782319307327 0.00075394235318526625633 0.0009248833521269261837 0.0014354011509567499161 0.00071426585782319307327 0.00085289089474827051163 0.00049301126273348927498 0 0 0.00071426585782319307327 0.00049301126273348927498 0 0.00085289089474827051163 0 0.00049301126273348927498 0.0045074159279465675354 0.0037832162342965602875 0.0042898096144199371338 0.0035986388102173805237 0.0026406391989439725876 0.0032759991008788347244 0.0037832162342965602875 0.0035986388102173805237 0.0036794231273233890533 0.0042898096144199371338 0.0032759991008788347244 0.0035986388102173805237 0.0025406547356396913528 0.0034384857863187789917 0.0027291397564113140106 0.0028643026016652584076 0.0036794231273233890533 0.0032759991008788347244 0.0034384857863187789917 0.0028643026016652584076 0.0026406391989439725876 0.0027291397564113140106 0.0032759991008788347244 0.0028643026016652584076 0.0014354011509567499161 0.0015315462369471788406 0.0020833364687860012054 0.001800381811335682869 0.0015055105322971940041 0.0023123100399971008301 0.0015315462369471788406 0.001800381811335682869 0.0026406391989439725876 0.0020833364687860012054 0.0023123100399971008301 0.001800381811335682869 0 0.00071290781488642096519 0.00085289089474827051163 0.00096955575281754136086 0.0015055105322971940041 0.0015315462369471788406 0.00071290781488642096519 0.00096955575281754136086 0.0014354011509567499161 0.00085289089474827051163 0.0015315462369471788406 0.00096955575281754136086 0.0026406391989439725876 0.0023123100399971008301 0.0027291397564113140106 0.0021692451555281877518 0.0015055105322971940041 0.0021525740157812833786 0.0023123100399971008301 0.0021692451555281877518 0.0025406547356396913528 0.0027291397564113140106 0.0021525740157812833786 0.0021692451555281877518 0.010689562186598777771 0.0087927188724279403687 0.010028338059782981873 0.0089638344943523406982 0.0067354436032474040985 0.0082280375063419342041 0.0087927188724279403687 0.0089638344943523406982 0.0094143655151128768921 0.010028338059782981873 0.0082280375063419342041 0.0089638344943523406982 0.0030879378318786621094 0.0025355117395520210266 0.0030849904287606477737 0.0021531982347369194031 0 0.0021694342140108346939 0.0025355117395520210266 0.0021531982347369194031 0.0026123076677322387695 0.0030849904287606477737 0.0021694342140108346939 0.0021531982347369194031 0.0043554240837693214417 0.0045313169248402118683 0.0055297040380537509918 0.0051678335294127464294 0.004647244233638048172 0.0055374503135681152344 0.0045313169248402118683 0.0051678335294127464294 0.0064761172980070114136 0.0055297040380537509918 0.0055374503135681152344 0.0051678335294127464294 0.0028227237053215503693 0.0034392252564430236816 0.0028553435113281011581 0.0029964612331241369247 0.0038216705434024333954 0.0035455010365694761276 0.0034392252564430236816 0.0029964612331241369247 0.0026123076677322387695 0.0028553435113281011581 0.0035455010365694761276 0.0029964612331241369247 0.0063828784041106700897 0.005761787761002779007 0.005208785180002450943 0.0049597676843404769897 0.0047899233177304267883 0.0042698741890490055084 0.005761787761002779007 0.0049597676843404769897 0.0037888011429458856583 0.005208785180002450943 0.0042698741890490055084 0.0049597676843404769897 0.001709382631815969944 0.00097590184304863214493 0.00082989648217335343361 0.00058192806318402290344 0 0 0.00097590184304863214493 0.00058192806318402290344 0 0.00082989648217335343361 0 0.00058192806318402290344 0.0028227237053215503693 0.0040198829956352710724 0.0034392252564430236816 0.0038000496570020914078 0.0047899233177304267883 0.0045080878771841526031 0.0040198829956352710724 0.0038000496570020914078 0.0038216705434024333954 0.0034392252564430236816 0.0045080878771841526031 0.0038000496570020914078 0.0047899233177304267883 0.0040198829956352710724 0.0042698741890490055084 0.0037357192486524581909 0.0028227237053215503693 0.0034591753501445055008 0.0040198829956352710724 0.0037357192486524581909 0.0037888011429458856583 0.0042698741890490055084 0.0034591753501445055008 0.0037357192486524581909 0.0016217345837503671646 0.002284809015691280365 0.0016788201173767447472 0.0019685325678437948227 0.0028227237053215503693 0.0024430837947875261307 0.002284809015691280365 0.0019685325678437948227 0.0015885269967839121819 0.0016788201173767447472 0.0024430837947875261307 0.0019685325678437948227 0.0015885269967839121819 0.0022294502705335617065 0.0012947114882990717888 0.0015312946634367108345 0.0026123076677322387695 0.0021694342140108346939 0.0022294502705335617065 0.0015312946634367108345 0 0.0012947114882990717888 0.0021694342140108346939 0.0015312946634367108345 0.0026123076677322387695 0.0022294502705335617065 0.0028553435113281011581 0.0022817878052592277527 0.0015885269967839121819 0.0024430837947875261307 0.0022294502705335617065 0.0022817878052592277527 0.0028227237053215503693 0.0028553435113281011581 0.0024430837947875261307 0.0022817878052592277527 0.0025406547356396913528 0.0021525740157812833786 0.0021339918021112680435 0.0014796262839809060097 0.0015055105322971940041 0.001253111986443400383 0.0021525740157812833786 0.0014796262839809060097 0 0.0021339918021112680435 0.001253111986443400383 0.0014796262839809060097 0.002843601396307349205 0.0036948265042155981064 0.0035607847385108470917 0.0037189021240919828415 0.0045074159279465675354 0.0042858947999775409698 0.0036948265042155981064 0.0037189021240919828415 0.004006884060800075531 0.0035607847385108470917 0.0042858947999775409698 0.0037189021240919828415 0.0045074159279465675354 0.0036948265042155981064 0.0037832162342965602875 0.0032783101778477430344 0.002843601396307349205 0.002865812741219997406 0.0036948265042155981064 0.0032783101778477430344 0.0026406391989439725876 0.0037832162342965602875 0.002865812741219997406 0.0032783101778477430344 0 0 0.00086801557336002588272 0.0006532906554639339447 0 0.001253111986443400383 0 0.0006532906554639339447 0.0015055105322971940041 0.00086801557336002588272 0.001253111986443400383 0.0006532906554639339447 0.0016217345837503671646 0.0016788201173767447472 0.00093853176804259419441 0.0010577554348856210709 0.0015885269967839121819 0.0007550086011178791523 0.0016788201173767447472 0.0010577554348856210709 0 0.00093853176804259419441 0.0007550086011178791523 0.0010577554348856210709 0 0.00097590184304863214493 0.00079190428368747234344 0.0011303346836939454079 0.001709382631815969944 0.0017033360200002789497 0.00097590184304863214493 0.0011303346836939454079 0.0016217345837503671646 0.00079190428368747234344 0.0017033360200002789497 0.0011303346836939454079 0.0015055105322971940041 0.00071290781488642096519 0.00086801557336002588272 0.00047015681047923862934 0 0 0.00071290781488642096519 0.00047015681047923862934 0 0.00086801557336002588272 0 0.00047015681047923862934 0.0015885269967839121819 0.0012947114882990717888 0.00090960669331252574921 0.00068096601171419024467 0 0 0.0012947114882990717888 0.00068096601171419024467 0 0.00090960669331252574921 0 0.00068096601171419024467 0.0028227237053215503693 0.002284809015691280365 0.0034591753501445055008 0.0027819825336337089539 0.0016217345837503671646 0.0029123716522008180618 0.002284809015691280365 0.0027819825336337089539 0.0037888011429458856583 0.0034591753501445055008 0.0029123716522008180618 0.0027819825336337089539 0.0080630918964743614197 0.0078812437132000923157 0.0070990924723446369171 0.0071971169672906398773 0.007651414722204208374 0.0069111702032387256622 0.0078812437132000923157 0.0071971169672906398773 0.0058105187490582466125 0.0070990924723446369171 0.0069111702032387256622 0.0071971169672906398773 0.0036794231273233890533 0.0035521863028407096863 0.0051142820157110691071 0.0043455506674945354462 0.0030879378318786621094 0.005033026915043592453 0.0035521863028407096863 0.0043455506674945354462 0.0060492986813187599182 0.0051142820157110691071 0.005033026915043592453 0.0043455506674945354462 0.0037888011429458856583 0.0029123716522008180618 0.0027537783607840538025 0.0023717961739748716354 0.0016217345837503671646 0.0017033360200002789497 0.0029123716522008180618 0.0023717961739748716354 0.001709382631815969944 0.0027537783607840538025 0.0017033360200002789497 0.0023717961739748716354 0.0037888011429458856583 0.0039559262804687023163 0.004972707945853471756 0.0045466250739991664886 0.0040418156422674655914 0.0049527240917086601257 0.0039559262804687023163 0.0045466250739991664886 0.0058093951083719730377 0.004972707945853471756 0.0049527240917086601257 0.0045466250739991664886 0.0067147156223654747009 0.0059603299014270305634 0.0066344253718852996826 0.0059839081950485706329 0.0047899233177304267883 0.005761787761002779007 0.0059603299014270305634 0.0059839081950485706329 0.0063828784041106700897 0.0066344253718852996826 0.005761787761002779007 0.0059839081950485706329 0.0052626798860728740692 0.0047441534698009490967 0.0055342805571854114532 0.0048579163849353790283 0.0038216705434024333954 0.0049206274561583995819 0.0047441534698009490967 0.0048579163849353790283 0.0054953806102275848389 0.0055342805571854114532 0.0049206274561583995819 0.0048579163849353790283 0.0055022854357957839966 0.0059147235006093978882 0.0068978103809058666229 0.0064910296350717544556 0.0060492986813187599182 0.0071426904760301113129 0.0059147235006093978882 0.0064910296350717544556 0.0078136650845408439636 0.0068978103809058666229 0.0071426904760301113129 0.0064910296350717544556 0.0045074159279465675354 0.005126476287841796875 0.0055798720568418502808 0.0054274611175060272217 0.0055022854357957839966 0.0060218605212867259979 0.005126476287841796875 0.0054274611175060272217 0.0062505621463060379028 0.0055798720568418502808 0.0060218605212867259979 0.0054274611175060272217 0.0063828784041106700897 0.0077729132026433944702 0.0078006931580603122711 0.0080478712916374206543 0.0087974164634943008423 0.008872271515429019928 0.0077729132026433944702 0.0080478712916374206543 0.0088890427723526954651 0.0078006931580603122711 0.008872271515429019928 0.0080478712916374206543 0.00526267988607287