# vtk DataFile Version 3.0
#This file was generated by the deal.II library on 2022/4/28 at 19:02:49
ASCII
DATASET UNSTRUCTURED_GRID

POINTS 6588 double
1 0.5 0
0.86595898465135690003 0.49939374906094469164 0
0.87502499999999994174 0.3439512574334766537 0
0.8273226564342378575 0.39556333766294754506 0
0.73191796930271380006 0.4987874981218894388 0
0.74098398465135684177 0.34334500649442140086 0
0.86595898465135690003 0.49939374906094469164 0
0.8273226564342378575 0.39556333766294754506 0
0.13508314296227180717 0.36467626308001621638 0
0.13379157148113590692 0.27608813154000810819 0
0.20854629287336259869 0.31515161455242679533 0
0.18319752858224172543 0.27260107636828451172 0
0.2820094427844533902 0.2656269660248374298 0
0.28653744084693527627 0.35159231318746969608 0
0.20854629287336259869 0.31515161455242679533 0
0.23605267488538075882 0.35595362981831851767 0
0.29106543890941716235 0.43755766035010196235 0
0.21307429093584448476 0.40111696171505906161 0
0.28653744084693527627 0.35159231318746969608 0
0.23605267488538075882 0.35595362981831851767 0
0.13508314296227180717 0.36467626308001621638 0
0.20854629287336259869 0.31515161455242679533 0
0.21307429093584448476 0.40111696171505906161 0
0.23605267488538075882 0.35595362981831851767 0
0.46432613938330258296 0.48253763953893380467 0
0.598122054343008136 0.49066256883041159398 0
0.53293771570680603666 0.60778798593727711985 0
0.5992644669054419948 0.571454489998814541 0
0.73191796930271380006 0.4987874981218894388 0
0.66673363066651170072 0.61591291522875490916 0
0.598122054343008136 0.49066256883041159398 0
0.5992644669054419948 0.571454489998814541 0
0.60154929203030960139 0.73303833233562043503 0
0.53293771570680603666 0.60778798593727711985 0
0.66673363066651170072 0.61591291522875490916 0
0.5992644669054419948 0.571454489998814541 0
0 0.25 0
0 0.1875 0
0.066250000000000003331 0.21875 0
0.044166666666666666574 0.1875 0
0 0.125 0
0.066250000000000003331 0.15625 0
0 0.1875 0
0.044166666666666666574 0.1875 0
0.13250000000000000666 0.1875 0
0.066250000000000003331 0.21875 0
0.066250000000000003331 0.15625 0
0.044166666666666666574 0.1875 0
0.50009999999999998899 0 0
0.46884999999999998899 0.1002233203581776172 0
0.43759999999999998899 0 0
0.43759999999999998899 0.066815546905451744797 0
0.13508314296227180717 0.36467626308001621638 0
0.21307429093584448476 0.40111696171505906161 0
0.14596045248463912491 0.44307591210217339706 0
0.19432878129289846147 0.44123649485148286331 0
0.29106543890941716235 0.43755766035010196235 0
0.22395160045821177475 0.4795166107372162978 0
0.21307429093584448476 0.40111696171505906161 0
0.19432878129289846147 0.44123649485148286331 0
0.1568377620070064149 0.52147556112433057773 0
0.14596045248463912491 0.44307591210217339706 0
0.22395160045821177475 0.4795166107372162978 0
0.19432878129289846147 0.44123649485148286331 0
0.13250000000000000666 0.1875 0
0.13379157148113590692 0.27608813154000810819 0
0.066250000000000003331 0.21875 0
0.089194380987423937945 0.26739208769333872029 0
0.13508314296227180717 0.36467626308001621638 0
0.067541571481135903587 0.30733813154000810819 0
0.13379157148113590692 0.27608813154000810819 0
0.089194380987423937945 0.26739208769333872029 0
0 0.25 0
0.066250000000000003331 0.21875 0
0.067541571481135903587 0.30733813154000810819 0
0.089194380987423937945 0.26739208769333872029 0
0.46432613938330258296 0.48253763953893380467 0
0.37769578914635987266 0.46004764994451785576 0
0.45096306969165128598 0.34149214012764450565 0
0.39766385943090654109 0.37351398020179699122 0
0.29106543890941716235 0.43755766035010196235 0
0.36433271945470857567 0.31900215053322861225 0
0.37769578914635987266 0.46004764994451785576 0
0.39766385943090654109 0.37351398020179699122 0
0 0.5 0
0 0.375 0
0.067541571481135903587 0.43233813154000810819 0
0.045027714320757271371 0.37155875436000540546 0
0 0.25 0
0.067541571481135903587 0.30733813154000810819 0
0 0.375 0
0.045027714320757271371 0.37155875436000540546 0
0.13508314296227180717 0.36467626308001621638 0
0.067541571481135903587 0.43233813154000810819 0
0.067541571481135903587 0.30733813154000810819 0
0.045027714320757271371 0.37155875436000540546 0
0.1568377620070064149 0.52147556112433057773 0
0.22395160045821177475 0.4795166107372162978 0
0.24292609920066265961 0.58452071158497975745 0
0.25897254577024747535 0.53553302784002054793 0
0.29106543890941716235 0.43755766035010196235 0
0.31003993765186804721 0.54256176119786547751 0
0.22395160045821177475 0.4795166107372162978 0
0.25897254577024747535 0.53553302784002054793 0
0.32901443639431893207 0.64756586204562893716 0
0.24292609920066265961 0.58452071158497975745 0
0.31003993765186804721 0.54256176119786547751 0
0.25897254577024747535 0.53553302784002054793 0
0.60154929203030960139 0.73303833233562043503 0
0.67577464601515480069 0.86651916616781021752 0
0.55077464601515480069 0.86651916616781021752 0
0.6171830973434365708 0.91101277744520681168 0
0.75 1 0
0.625 1 0
0.67577464601515480069 0.86651916616781021752 0
0.6171830973434365708 0.91101277744520681168 0
0.5 1 0
0.55077464601515480069 0.86651916616781021752 0
0.625 1 0
0.6171830973434365708 0.91101277744520681168 0
0.29106543890941716235 0.43755766035010196235 0
0.37769578914635987266 0.46004764994451785576 0
0.31003993765186804721 0.54256176119786547751 0
0.3614686715623462443 0.52255372064488814221 0
0.46432613938330258296 0.48253763953893380467 0
0.39667028788881075752 0.56505175079228142643 0
0.37769578914635987266 0.46004764994451785576 0
0.3614686715623462443 0.52255372064488814221 0
0.32901443639431893207 0.64756586204562893716 0
0.31003993765186804721 0.54256176119786547751 0
0.39667028788881075752 0.56505175079228142643 0
0.3614686715623462443 0.52255372064488814221 0
0.13508314296227180717 0.36467626308001621638 0
0.14596045248463912491 0.44307591210217339706 0
0.067541571481135903587 0.43233813154000810819 0
0.097306968323092754569 0.46205060806811565355 0
0.1568377620070064149 0.52147556112433057773 0
0.07841888100350320745 0.51073778056216534438 0
0.14596045248463912491 0.44307591210217339706 0
0.097306968323092754569 0.46205060806811565355 0
0 0.5 0
0.067541571481135903587 0.43233813154000810819 0
0.07841888100350320745 0.51073778056216534438 0
0.097306968323092754569 0.46205060806811565355 0
0.32901443639431893207 0.64756586204562893716 0
0.39667028788881075752 0.56505175079228142643 0
0.46528186421231426673 0.69030209719062463058 0
0.46496328926931035364 0.6210472779733944293 0
0.46432613938330258296 0.48253763953893380467 0
0.53293771570680603666 0.60778798593727711985 0
0.39667028788881075752 0.56505175079228142643 0
0.46496328926931035364 0.6210472779733944293 0
0.60154929203030960139 0.73303833233562043503 0
0.46528186421231426673 0.69030209719062463058 0
0.53293771570680603666 0.60778798593727711985 0
0.46496328926931035364 0.6210472779733944293 0
0.43759999999999998899 0.20044664071635523439 0
0.59382500000000004725 0.19417457779165431253 0
0.45096306969165128598 0.34149214012764450565 0
0.55065871312776748514 0.2902955983740807544 0
0 0.75 0
0 0.625 0
0.07841888100350320745 0.63573778056216534438 0
0.05227925400233546932 0.59049185370811019258 0
0 0.5 0
0.07841888100350320745 0.51073778056216534438 0
0 0.625 0
0.05227925400233546932 0.59049185370811019258 0
0.1568377620070064149 0.52147556112433057773 0
0.07841888100350320745 0.63573778056216534438 0
0.07841888100350320745 0.51073778056216534438 0
0.05227925400233546932 0.59049185370811019258 0
0.32901443639431893207 0.64756586204562893716 0
0.16450721819715946603 0.69878293102281441307 0
0.24292609920066265961 0.58452071158497975745 0
0.16195073280044178232 0.63968047438998654197 0
0.1568377620070064149 0.52147556112433057773 0
0.24292609920066265961 0.58452071158497975745 0
0.07841888100350320745 0.63573778056216534438 0
0.16195073280044178232 0.63968047438998654197 0
0.60154929203030960139 0.73303833233562043503 0
0.55077464601515480069 0.86651916616781021752 0
0.46528186421231426673 0.69030209719062463058 0
0.47685457614154280748 0.79353473146041642039 0
0.5 1 0
0.41450721819715946603 0.82378293102281441307 0
0.55077464601515480069 0.86651916616781021752 0
0.47685457614154280748 0.79353473146041642039 0
0.73191796930271380006 0.4987874981218894388 0
0.598122054343008136 0.49066256883041159398 0
0.74098398465135684177 0.34334500649442140086 0
0.64876470289533871849 0.38974255084259218362 0
0.5 1 0
0.375 1 0
0.41450721819715946603 0.82378293102281441307 0
0.35967147879810629219 0.88252195401520960871 0
0.73191796930271380006 0.4987874981218894388 0
0.86595898465135690003 0.49939374906094469164 0
0.86595898465135690003 0.62439374906094469164 0
0.91063932310090456301 0.58292916604062983144 0
1 0.5 0
1 0.625 0
0.86595898465135690003 0.49939374906094469164 0
0.91063932310090456301 0.58292916604062983144 0
0.13250000000000000666 0.1875 0
0.13059999999999999387 0.140625 0
0.16187499999999999112 0.16562499999999999445 0
0.15539583333333334414 0.13020833333333334259 0
0.13059999999999999387 0.140625 0
0.12870000000000000884 0.09375 0
0.15539583333333334414 0.13020833333333334259 0
0.14891666666666669716 0.094791666666666662966 0
0.12490000000000001101 0 0
0.15617500000000000826 0.025000000000000001388 0
0.1268000000000000238 0.046875 0
0.15254583333333335271 0.059895833333333328707 0
0.15617500000000000826 0.025000000000000001388 0
0.18745000000000000551 0.050000000000000002776 0
0.15254583333333335271 0.059895833333333328707 0
0.17829166666666668162 0.072916666666666657415 0
0.1268000000000000238 0.046875 0
0.15254583333333335271 0.059895833333333328707 0
0.12870000000000000884 0.09375 0
0.14891666666666669716 0.094791666666666662966 0
0.15254583333333335271 0.059895833333333328707 0
0.17829166666666668162 0.072916666666666657415 0
0.14891666666666669716 0.094791666666666662966 0
0.16913333333333335773 0.095833333333333325932 0
0.43759999999999998899 0.20044664071635523439 0
0.39069999999999999174 0.17533498053726642718 0
0.42197499999999998899 0.15033498053726643273 0
[...]
POINT_DATA 6588
SCALARS solution double 1
LOOKUP_TABLE default
0 0.036697532981634140015 0.032159112393856048584 0.042961966246366500854 0.059185605496168136597 0.053272329270839691162 0.036697532981634140015 0.042961966246366500854 0.033652488142251968384 0.028890436515212059021 0.042881827801465988159 0.03593555837869644165 0.046188049018383026123 0.054979100823402404785 0.042881827801465988159 0.049408063292503356934 0.059985019266605377197 0.048540502786636352539 0.054979100823402404785 0.049408063292503356934 0.033652488142251968384 0.042881827801465988159 0.048540502786636352539 0.049408063292503356934 0.07208754122257232666 0.07038869708776473999 0.0697897300124168396 0.069290786981582641602 0.059185605496168136597 0.063109003007411956787 0.07038869708776473999 0.069290786981582641602 0.057191114872694015503 0.0697897300124168396 0.063109003007411956787 0.069290786981582641602 0 0 0.014041633345186710358 0.0088817579671740531921 0 0.011116859503090381622 0 0.0088817579671740531921 0.02159395068883895874 0.014041633345186710358 0.011116859503090381622 0.0088817579671740531921 0 0.027339052408933639526 0 0.018589433282613754272 0.033652488142251968384 0.048540502786636352539 0.03802914544939994812 0.046863455325365066528 0.059985019266605377197 0.052271742373704910278 0.048540502786636352539 0.046863455325365066528 0.040871664881706237793 0.03802914544939994812 0.052271742373704910278 0.046863455325365066528 0.02159395068883895874 0.028890436515212059021 0.014041633345186710358 0.020496763288974761963 0.033652488142251968384 0.017414538189768791199 0.028890436515212059021 0.020496763288974761963 0 0.014041633345186710358 0.017414538189768791199 0.020496763288974761963 0.07208754122257232666 0.06806112825870513916 0.06485411524772644043 0.065215863287448883057 0.059985019266605377197 0.058708623051643371582 0.06806112825870513916 0.065215863287448883057 0 0 0.019788768142461776733 0.013074896298348903656 0 0.017414538189768791199 0 0.013074896298348903656 0.033652488142251968384 0.019788768142461776733 0.017414538189768791199 0.013074896298348903656 0.040871664881706237793 0.052271742373704910278 0.054280258715152740479 0.057278133928775787354 0.059985019266605377197 0.062982320785522460938 0.052271742373704910278 0.057278133928775787354 0.060694050043821334839 0.054280258715152740479 0.062982320785522460938 0.057278133928775787354 0.057191114872694015503 0.033246301114559173584 0.036345027387142181396 0.025150837376713752747 0 0 0.033246301114559173584 0.025150837376713752747 0 0.036345027387142181396 0 0.025150837376713752747 0.059985019266605377197 0.06806112825870513916 0.062982320785522460938 0.067539222538471221924 0.07208754122257232666 0.069010138511657714844 0.06806112825870513916 0.067539222538471221924 0.060694050043821334839 0.062982320785522460938 0.069010138511657714844 0.067539222538471221924 0.033652488142251968384 0.03802914544939994812 0.019788768142461776733 0.027572307735681533813 0.040871664881706237793 0.023084474727511405945 0.03802914544939994812 0.027572307735681533813 0 0.019788768142461776733 0.023084474727511405945 0.027572307735681533813 0.060694050043821334839 0.069010138511657714844 0.063569381833076477051 0.06894934922456741333 0.07208754122257232666 0.0697897300124168396 0.069010138511657714844 0.06894934922456741333 0.057191114872694015503 0.063569381833076477051 0.0697897300124168396 0.06894934922456741333 0.046530835330486297607 0.046294257044792175293 0.06485411524772644043 0.060393240302801132202 0 0 0.022076902911067008972 0.015761625021696090698 0 0.023084474727511405945 0 0.015761625021696090698 0.040871664881706237793 0.022076902911067008972 0.023084474727511405945 0.015761625021696090698 0.060694050043821334839 0.037559360265731811523 0.054280258715152740479 0.039730023592710494995 0.040871664881706237793 0.054280258715152740479 0.022076902911067008972 0.039730023592710494995 0.057191114872694015503 0.036345027387142181396 0.063569381833076477051 0.05035832524299621582 0 0.044165574014186859131 0.036345027387142181396 0.05035832524299621582 0.059185605496168136597 0.07038869708776473999 0.053272329270839691162 0.064428038895130157471 0 0 0.044165574014186859131 0.031118987128138542175 0.059185605496168136597 0.036697532981634140015 0.035060659050941467285 0.025734080001711845398 0 0 0.036697532981634140015 0.025734080001711845398 0.02159395068883895874 0.016675394028425216675 0.021858036518096923828 0.016875648871064186096 0.016675394028425216675 0.011502717621624469757 0.016875648871064186096 0.012180712074041366577 0 0.0035004105884581804276 0.0061739580705761909485 0.0079102627933025360107 0.0035004105884581804276 0.0059353169053792953491 0.0079102627933025360107 0.0091385934501886367798 0.0061739580705761909485 0.0079102627933025360107 0.011502717621624469757 0.012180712074041366577 0.0079102627933025360107 0.0091385934501886367798 0.012180712074041366577 0.012438124045729637146 0.046530835330486297607 0.040038585662841796875 0.036753203719854354858 0.032477032393217086792 0.036753203719854354858 0.032477032393217086792 0.025526836514472961426 0.024258118122816085815 0.032477032393217086792 0.027428099885582923889 0.024258118122816085815 0.022558549419045448303 0.046530835330486297607 0.047554764896631240845 0.040038585662841796875 0.041759796440601348877 0.047554764896631240845 0.047828283160924911499 0.041759796440601348877 0.043097741901874542236 0.040038585662841796875 0.041759796440601348877 0.032138600945472717285 0.035103108733892440796 0.041759796440601348877 0.043097741901874542236 0.035103108733892440796 0.037884410470724105835 0.046188049018383026123 0.039783850312232971191 0.047381870448589324951 0.041592113673686981201 0.039783850312232971191 0.032001372426748275757 0.041592113673686981201 0.034975431859493255615 0.047381870448589324951 0.041592113673686981201 0.047828283160924911499 0.043097741901874542236 0.041592113673686981201 0.034975431859493255615 0.043097741901874542236 0.037884410470724105835 0.028921861201524734497 0.035103108733892440796 0.034975431859493255615 0.037884410470724105835 0.02159395068883895874 0.021858036518096923828 0.027639221400022506714 0.026547478511929512024 0.027639221400022506714 0.026547478511929512024 0.033847894519567489624 0.031641837209463119507 0.046188049018383026123 0.040122333914041519165 0.039783850312232971191 0.035696700215339660645 0.040122333914041519165 0.033847894519567489624 0.035696700215339660645 0.031641837209463119507 0.035696700215339660645 0.031641837209463119507 0.030383452773094177246 0.028866780921816825867 0.046530835330486297607 0.053952854126691818237 0.047554764896631240845 0.053011391311883926392 0.053952854126691818237 0.058708623051643371582 0.053011391311883926392 0.056883193552494049072 0.047554764896631240845 0.053011391311883926392 0.047828283160924911499 0.05178782343864440918 0.053011391311883926392 0.056883193552494049072 0.05178782343864440918 0.054945312440395355225 0.059985019266605377197 0.057915586978197097778 0.060708265751600265503 0.058202583342790603638 0.057915586978197097778 0.054979100823402404785 0.058202583342790603638 0.055342175066471099854 0.060708265751600265503 0.058202583342790603638 0.058708623051643371582 0.056883193552494049072 0.058202583342790603638 0.055342175066471099854 0.056883193552494049072 0.054945312440395355225 0.046188049018383026123 0.047381870448589324951 0.051106929779052734375 0.051839929074048995972 0.047381870448589324951 0.047828283160924911499 0.051839929074048995972 0.05178782343864440918 0.051106929779052734375 0.051839929074048995972 0.054979100823402404785 0.055342175066471099854 0.051839929074048995972 0.05178782343864440918 0.055342175066471099854 0.054945312440395355225 0.0039432523772120475769 0.0045214071869850158691 0.0022698401007801294327 0.0031662189867347478867 0 0 0.0035004105884581804276 0.0027552342507988214493 0 0 0.0027552342507988214493 0.0018927850760519504547 0.0035004105884581804276 0.0027552342507988214493 0.0059353169053792953491 0.0045214071869850158691 0.0027552342507988214493 0.0018927850760519504547 0.0045214071869850158691 0.0031662189867347478867 0 0.013190634548664093018 0.0057571637444198131561 0.014919920824468135834 0.013190634548664093018 0.025526836514472961426 0.014919920824468135834 0.024258118122816085815 0.0057571637444198131561 0.014919920824468135834 0.0088787078857421875 0.01558065507560968399 0.014919920824468135834 0.024258118122816085815 0.01558065507560968399 0.022558549419045448303 0.018801739439368247986 0.01558065507560968399 0.027428099885582923889 0.022558549419045448303 0.0053561795502901077271 0.0030811701435595750809 0.0065632606856524944305 0.0044719846919178962708 0 0.0057571637444198131561 0 0.0042027090676128864288 0.0057571637444198131561 0.0088787078857421875 0.0042027090676128864288 0.0065632606856524944305 0 0.0042027090676128864288 0 0.0027137226425111293793 0.0042027090676128864288 0.0065632606856524944305 0.0027137226425111293793 0.0044719846919178962708 0 0.018777921795845031738 0 0.01488798484206199646 0.018777921795845031738 0.032159112393856048584 0.01488798484206199646 0.025793695822358131409 0 0.01488798484206199646 0 0.010600873269140720367 0.01488798484206199646 0.025793695822358131409 0.010600873269140720367 0.019214062020182609558 0 0 0 0.0014287340454757213593 0 0 0.0014287340454757213593 0.0022698401007801294327 0 0.0014287340454757213593 0 0.0018927850760519504547 0.0014287340454757213593 0.0022698401007801294327 0.0018927850760519504547 0.0031662189867347478867 0 0 0.014198646880686283112 0.011451862752437591553 0 0 0.011451862752437591553 0.0082448022440075874329 0.014198646880686283112 0.011451862752437591553 0.025769714266061782837 0.020826334133744239807 0.011451862752437591553 0.0082448022440075874329 0.020826334133744239807 0.015590189024806022644 0 0.0079317875206470489502 0 0.0082448022440075874329 0.0079317875206470489502 0.016273356974124908447 0.0082448022440075874329 0.015590189024806022644 0.037487119436264038086 0.033789157867431640625 0.025925643742084503174 0.025095583871006965637 0.033789157867431640625 0.025769714266061782837 0.025095583871006965637 0.020826334133744239807 0.025925643742084503174 0.025095583871006965637 0.014555115252733230591 0.016273356974124908447 0.025095583871006965637 0.020826334133744239807 0.016273356974124908447 0.015590189024806022644 0 0 0.0097334152087569236755 0.010600873269140720367 0.0097334152087569236755 0.010600873269140720367 0.018782082945108413696 0.019214062020182609558 0.037487119436264038086 0.025925643742084503174 0.038767732679843902588 0.028809575363993644714 0.025925643742084503174 0.014555115252733230591 0.028809575363993644714 0.018782082945108413696 0.038767732679843902588 0.028809575363993644714 0.032159112393856048584 0.025793695822358131409 0.028809575363993644714 0.018782082945108413696 0.025793695822358131409 0.019214062020182609558 0 0.013447842560708522797 0 0.0098563367500901222229 0.013447842560708522797 0.018110562115907669067 0.0098563367500901222229 0.013836055062711238861 0 0.0098563367500901222229 0 0.0064843916334211826324 0.0098563367500901222229 0.013836055062711238861 0.0064843916334211826324 0.0098415790125727653503 0 0 0.013460275717079639435 0.0098611181601881980896 0 0 0.0098611181601881980896 0.0064857341349124908447 0.013460275717079639435 0.0098611181601881980896 0.018110562115907669067 0.013836055062711238861 0.0098611181601881980896 0.0064857341349124908447 0.013836055062711238861 0.0098415790125727653503 0.0046561872586607933044 0.0064843916334211826324 0.0064857341349124908447 0.0098415790125727653503 0 0.013482817448675632477 0 0.0098772766068577766418 0.013482817448675632477 0.018147902563214302063 0.0098772766068577766418 0.013861922547221183777 0 0.0098772766068577766418 0 0.006495174020528793335 0.0098772766068577766418 0.013861922547221183777 0.006495174020528793335 0.0098585234954953193665 0 0 0.013482088223099708557 0.0098769394680857658386 0 0 0.0098769394680857658386 0.0064950822852551937103 0.013482088223099708557 0.0098769394680857658386 0.018147902563214302063 0.013861922547221183777 0.0098769394680857658386 0.0064950822852551937103 0.013861922547221183777 0.0098585234954953193665 0 0 0.0046629682183265686035 0.006495174020528793335 0 0.0046629682183265686035 0 0.0064950822852551937103 0.0046629682183265686035 0.006495174020528793335 0.0064950822852551937103 0.0098585234954953193665 0 0 0 0.0019385028863325715065 0 0 0.0019385028863325715065 0.0027137226425111293793 0 0.0019385028863325715065 0 0.0030811701435595750809 0.0019385028863325715065 0.0027137226425111293793 0.0030811701435595750809 0.0044719846919178962708 0 0.013482088223099708557 0.023592280223965644836 0.026411619037389755249 0.013482088223099708557 0.018147902563214302063 0.026411619037389755249 0.025502635166049003601 0.023592280223965644836 0.026411619037389755249 0.039963286370038986206 0.036990422755479812622 0.026411619037389755249 0.025502635166049003601 0.036990422755479812622 0.032796610146760940552 0 0 0 0.0012950400123372673988 0 0 0.0012950400123372673988 0.0018144319765269756317 0 0.0012950400123372673988 0 0.0018432601355016231537 0.0012950400123372673988 0.0018144319765269756317 0.0018432601355016231537 0.002795024774968624115 0 0.0037803128361701965332 0 0.0027756106574088335037 0.0037803128361701965332 0.0052855196408927440643 0.0027756106574088335037 0.0039824987761676311493 0 0.0027756106574088335037 0 0.0018144319765269756317 0.0027756106574088335037 0.0039824987761676311493 0.0018144319765269756317 0.002795024774968624115 0 0 0.0040497323498129844666 0.0028788179624825716019 0 0 0.0028788179624825716019 0.0018432601355016231537 0.0040497323498129844666 0.0028788179624825716019 0.0052855196408927440643 0.0039824987761676311493 0.0028788179624825716019 0.0018432601355016231537 0.0039824987761676311493 0.002795024774968624115 0 0.0061739580705761909485 0.0037803128361701965332 0.0074520250782370567322 0.0061739580705761909485 0.011502717621624469757 0.0074520250782370567322 0.011000472120940685272 0.0037803128361701965332 0.0074520250782370567322 0.0052855196408927440643 0.0075211147777736186981 0.0074520250782370567322 0.011000472120940685272 0.0075211147777736186981 0.009947171434760093689 0 0.013460275717079639435 0.021867638453841209412 0.02585603669285774231 0.013460275717079639435 0.018110562115907669067 0.02585603669285774231 0.025856245309114456177 0.021867638453841209412 0.02585603669285774231 0.038840766996145248413 0.037030488252639770508 0.02585603669285774231 0.025856245309114456177 0.037030488252639770508 0.033720005303621292114 0 0.020771080628037452698 0.013447842560708522797 0.025368550792336463928 0.020771080628037452698 0.037559360265731811523 0.025368550792336463928 0.036462601274251937866 0.013447842560708522797 0.025368550792336463928 0.018110562115907669067 0.025856245309114456177 0.025368550792336463928 0.036462601274251937866 0.025856245309114456177 0.033720005303621292114 0.046743687242269515991 0.053272329270839691162 0.056432962417602539062 0.059429019689559936523 0.051923215389251708984 0.056432962417602539062 0.06312672048807144165 0.064120627939701080322 0.056432962417602539062 0.059429019689559936523 0.064120627939701080322 0.064428038895130157471 0 0.023592280223965644836 0.018370017409324645996 0.033468734472990036011 0.033468734472990036011 0.0445365123450756073 0.042709287256002426147 0.048611715435981750488 0.037487119436264038086 0.038767732679843902588 0.046743687242269515991 0.044273212552070617676 0.038767732679843902588 0.032159112393856048584 0.044273212552070617676 0.037739474326372146606 0.046743687242269515991 0.044273212552070617676 0.053272329270839691162 0.049023449420928955078 0.044273212552070617676 0.037739474326372146606 0.049023449420928955078 0.042961966246366500854 0 0 0.013190634548664093018 0.011657595634460449219 0 0 0.011657595634460449219 0.0097651360556483268738 0.013190634548664093018 0.011657595634460449219 0.025526836514472961426 0.02225434035062789917 0.011657595634460449219 0.0097651360556483268738 0.02225434035062789917 0.018589433282613754272 0.046530835330486297607 0.036753203719854354858 0.037804674357175827026 0.030355362221598625183 0.036753203719854354858 0.025526836514472961426 0.030355362221598625183 0.02225434035062789917 0.037804674357175827026 0.030355362221598625183 0.027339052408933639526 0.023053457960486412048 0.030355362221598625183 0.02225434035062789917 0.023053457960486412048 0.018589433282613754272 0.060694050043821334839 0.051658112555742263794 0.050798896700143814087 0.045042630285024642944 0.051658112555742263794 0.038840766996145248413 0.045042630285024642944 0.037030488252639770508 0.050798896700143814087 0.045042630285024642944 0.037559360265731811523 0.036462601274251937866 0.045042630285024642944 0.037030488252639770508 0.036462601274251937866 0.033720005303621292114 0.037487119436264038086 0.042972549796104431152 0.033789157867431640625 0.03769049420952796936 0.042972549796104431152 0.046294257044792175293 0.03769049420952796936 0.04083684086799621582 0.033789157867431640625 0.03769049420952796936 0.025769714266061782837 0.030292080715298652649 0.03769049420952796936 0.04083684086799621582 0.030292080715298652649 0.034481190145015716553 0.037487119436264038086 0.051923215389251708984 0.042972549796104431152 0.053676925599575042725 0.051923215389251708984 0.06312672048807144165 0.053676925599575042725 0.062130868434906005859 0.042972549796104431152 0.053676925599575042725 0.046294257044792175293 0.054036349058151245117 0.053676925599575042725 0.062130868434906005859 0.054036349058151245117 0.060393240302801132202 0.07208754122257232666 0.06978426128625869751 0.070047974586486816406 0.067357212305068969727 0.06978426128625869751 0.06485411524772644043 0.067357212305068969727 0.063310079276561737061 0.070047974586486816406 0.067357212305068969727 0.06312672048807144165 0.062130868434906005859 0.067357212305068969727 0.063310079276561737061 0.062130868434906005859 0.060393240302801132202 0 0.011125166900455951691 0.020771080628037452698 0.026283679530024528503 0.011125166900455951691 0.022076902911067008972 0.026283679530024528503 0.03159608691930770874 0.020771080628037452698 0.026283679530024528503 0.037559360265731811523 0.038789700716733932495 0.026283679530024528503 0.03159608691930770874 0.038789700716733932495 0.039730023592710494995 0.060694050043821334839 0.055596113204956054688 0.051658112555742263794 0.04661412164568901062 0.055596113204956054688 0.044165574014186859131 0.04661412164568901062 0.037926141172647476196 0.051658112555742263794 0.04661412164568901062 0.038840766996145248413 0.035733520984649658203 0.04661412164568901062 0.037926141172647476196 0.035733520984649658203 0.031118987128138542175 0 0.017689911648631095886 0.013482817448675632477 0.023818628862500190735 0.017689911648631095886 0.033246301114559173584 0.023818628862500190735 0.034004092216491699219 0.013482817448675632477 0.023818628862500190735 0.018147902563214302063 0.025502635166049003601 0.023818628862500190735 0.034004092216491699219 0.025502635166049003601 0.032796610146760940552 0.057191114872694015503 0.050813183188438415527 0.046485368162393569946 0.043127786368131637573 0.050813183188438415527 0.039963286370038986206 0.043127786368131637573 0.036990422755479812622 0.046485368162393569946 0.043127786368131637573 0.033246301114559173584 0.034004092216491699219 0.043127786368131637573 0.036990422755479812622 0.034004092216491699219 0.032796610146760940552 0.02159395068883895874 0.016416110098361968994 0.016675394028425216675 0.013948375359177589417 0.016416110098361968994 0.011116859503090381622 0.013948375359177589417 0.010833295062184333801 0.016675394028425216675 0.013948375359177589417 0.011502717621624469757 0.011000472120940685272 0.013948375359177589417 0.010833295062184333801 0.011000472120940685272 0.009947171434760093689 0 0.0040497323498129844666 0.0056494986638426780701 0.0073277871124446392059 0.0040497323498129844666 0.0052855196408927440643 0.0073277871124446392059 0.0075211