# vtk DataFile Version 3.0
#This file was generated by the deal.II library on 2022/4/28 at 19:02:51
ASCII
DATASET UNSTRUCTURED_GRID

POINTS 4332 double
0.24932618138521153717 0.09984146806468556512 0
0.24948336905223852944 0.10032352869165289677 0
0.24904193329000368085 0.10003893703796541692 0
0.24924147443309097039 0.10029448779818368742 0
0.24964055671926552171 0.10080558931862022842 0
0.24919912095703067312 0.10052099766493274857 0
0.24948336905223852944 0.10032352869165289677 0
0.24924147443309097039 0.10029448779818368742 0
0.24875768519479582452 0.10023640601124526872 0
0.24904193329000368085 0.10003893703796541692 0
0.24919912095703067312 0.10052099766493274857 0
0.24924147443309097039 0.10029448779818368742 0
0.24998750000000000138 0.087500000000000008327 0
0.24608125000000000138 0.090628909375000010762 0
0.24216874999999998819 0.087507818750000007646 0
0.24217083333333333517 0.089591152083333347456 0
0.24217500000000000138 0.093757818749999999319 0
0.23826249999999998819 0.090636728125000010081 0
0.24608125000000000138 0.090628909375000010762 0
0.24217083333333333517 0.089591152083333347456 0
0.23435000000000000275 0.087515637500000006965 0
0.24216874999999998819 0.087507818750000007646 0
0.23826249999999998819 0.090636728125000010081 0
0.24217083333333333517 0.089591152083333347456 0
0.24997500000000000275 0.075000000000000011102 0
0.23868385627800964288 0.066068750366882311731 0
0.24996250000000000413 0.0625 0
0.24243923751867310634 0.060712500244588206433 0
0.22739271255601931077 0.057137500733764619298 0
0.23867135627800967201 0.053568750366882314506 0
0.23868385627800964288 0.066068750366882311731 0
0.24243923751867310634 0.060712500244588206433 0
0.24995000000000000551 0.050000000000000002776 0
0.24996250000000000413 0.0625 0
0.23867135627800967201 0.053568750366882314506 0
0.24243923751867310634 0.060712500244588206433 0
0.21543901181997468508 0.022995042641238767206 0
0.22141586218799699792 0.040066271687501694987 0
0.21097277137993958318 0.040522230031219359792 0
0.21644608510529950163 0.04606065359873445092 0
0.22739271255601931077 0.057137500733764619298 0
0.21694962174796189602 0.057593459077482284103 0
0.22141586218799699792 0.040066271687501694987 0
0.21644608510529950163 0.04606065359873445092 0
0.20650653093990450904 0.058049417421199948908 0
0.21097277137993958318 0.040522230031219359792 0
0.21694962174796189602 0.057593459077482284103 0
0.21644608510529950163 0.04606065359873445092 0
0.39711175648337870836 0.17667285179633562819 0
0.42669873459187107612 0.154215810183280011 0
0.43369704026624711357 0.22162162287237205383 0
0.44122659774428590884 0.19166733810498950974 0
0.45628571270036344387 0.13175876857022442157 0
0.46328401837473953684 0.19916458125931646439 0
0.42669873459187107612 0.154215810183280011 0
0.44122659774428590884 0.19166733810498950974 0
0.47028232404911557429 0.26657039394840847946 0
0.43369704026624711357 0.22162162287237205383 0
0.46328401837473953684 0.19916458125931646439 0
0.44122659774428590884 0.19166733810498950974 0
0.2435476598633444234 0.11009727520021615754 0
0.24184173642694248296 0.10796199952753331164 0
0.24450266490183270029 0.10733827152532809945 0
0.24304704759806863845 0.10683442230183555488 0
0.24013581299054054252 0.10582672385485046573 0
0.24279674146543078761 0.10520299585264525355 0
0.24184173642694248296 0.10796199952753331164 0
0.24304704759806863845 0.10683442230183555488 0
0.24545766994032100494 0.10457926785044002749 0
0.24450266490183270029 0.10733827152532809945 0
0.24279674146543078761 0.10520299585264525355 0
0.24304704759806863845 0.10683442230183555488 0
0.24627030303798452815 0.098896454521728197062 0
0.24474801568781429095 0.10010710859264204675 0
0.24473402785976039464 0.098527124212617403498 0
0.24423126135238826251 0.099457337029596901146 0
0.24322572833764405376 0.10131776266355589644 0
0.24321174050959015744 0.099737778283531253187 0
0.24474801568781429095 0.10010710859264204675 0
0.24423126135238826251 0.099457337029596901146 0
0.24319775268153623338 0.098157793903506609934 0
0.24473402785976039464 0.098527124212617403498 0
0.24321174050959015744 0.099737778283531253187 0
0.24423126135238826251 0.099457337029596901146 0
0.2547387547946916575 0.10311488277204347574 0
0.25668413449058280484 0.10368853981452626212 0
0.25512448850194580086 0.10539219075037967177 0
0.25629283039678846245 0.10501552611925613068 0
0.25862951418647389668 0.10426219685700904849 0
0.25706986819783689269 0.10596584779286245814 0
0.25668413449058280484 0.10368853981452626212 0
0.25629283039678846245 0.10501552611925613068 0
0.2555102222091998887 0.1076694987287158678 0
0.25512448850194580086 0.10539219075037967177 0
0.25706986819783689269 0.10596584779286245814 0
0.25629283039678846245 0.10501552611925613068 0
0.24804375000000000728 0.098439454687500010932 0
0.24715702651899226772 0.098667954604614110936 0
0.24706562500000001092 0.097659182031250013623 0
0.24680051767932820184 0.098071606194742741436 0
0.24627030303798452815 0.098896454521728197062 0
0.24617890151899227136 0.097887681948364099749 0
0.24715702651899226772 0.098667954604614110936 0
0.24680051767932820184 0.098071606194742741436 0
0.24608750000000001457 0.096878909375000002435 0
0.24706562500000001092 0.097659182031250013623 0
0.24617890151899227136 0.097887681948364099749 0
0.24680051767932820184 0.098071606194742741436 0
0.23797718317904623109 0.099784120569444759163 0
0.24060145575834512854 0.1005509416165003278 0
0.23905649808479340068 0.10280542221214761245 0
0.24044624150241025728 0.10230953569595037378 0
0.24322572833764405376 0.10131776266355589644 0
0.24168077066409229814 0.10357224325920318109 0
0.24060145575834512854 0.1005509416165003278 0
0.24044624150241025728 0.10230953569595037378 0
0.24013581299054054252 0.10582672385485046573 0
0.23905649808479340068 0.10280542221214761245 0
0.24168077066409229814 0.10357224325920318109 0
0.24044624150241025728 0.10230953569595037378 0
0.24995000000000000551 0.050000000000000002776 0
0.23867135627800967201 0.053568750366882314506 0
0.23269450590998735917 0.036497521320619383256 0
0.23092724145866469487 0.043377514458334466563 0
0.22739271255601931077 0.057137500733764619298 0
0.22141586218799699792 0.040066271687501694987 0
0.23867135627800967201 0.053568750366882314506 0
0.23092724145866469487 0.043377514458334466563 0
0.21543901181997468508 0.022995042641238767206 0
0.23269450590998735917 0.036497521320619383256 0
0.22141586218799699792 0.040066271687501694987 0
0.23092724145866469487 0.043377514458334466563 0
0.25149030965894358935 0.1009515914089185451 0
0.25226238555865293511 0.10100082740944144044 0
0.2511430978390635782 0.10172142335207035035 0
0.25177355237882981243 0.1014976367047016742 0
0.25303446145836228087 0.1010500634099643219 0
0.25191517373877292396 0.10177065935259323182 0
0.25226238555865293511 0.10100082740944144044 0
0.25177355237882981243 0.1014976367047016742 0
0.25079588601918356705 0.10249125529522214173 0
0.2511430978390635782 0.10172142335207035035 0
0.25191517373877292396 0.10177065935259323182 0
0.25177355237882981243 0.1014976367047016742 0
0.25052249532624648598 0.10082450798286181348 0
0.25008152602275601772 0.10081504865074102095 0
0.25026124766312324299 0.10041225399143091646 0
0.25005435068183734515 0.10054336576716067786 0
0.24964055671926552171 0.10080558931862022842 0
0.24982027835963277473 0.10040279465931012393 0
0.25008152602275601772 0.10081504865074102095 0
0.25005435068183734515 0.10054336576716067786 0
0.25 0.10000000000000000555 0
0.25026124766312324299 0.10041225399143091646 0
0.24982027835963277473 0.10040279465931012393 0
0.25005435068183734515 0.10054336576716067786 0
0.24997500000000000275 0.075000000000000011102 0
0.24001336011118273861 0.075926235940075859077 0
0.23868385627800964288 0.066068750366882311731 0
0.23580647759279493858 0.069663324204638776838 0
0.23005172022236550222 0.076852471880151707051 0
0.22872221638919240649 0.066994986306958159705 0
0.24001336011118273861 0.075926235940075859077 0
0.23580647759279493858 0.069663324204638776838 0
0.22739271255601931077 0.057137500733764619298 0
0.23868385627800964288 0.066068750366882311731 0
0.22872221638919240649 0.066994986306958159705 0
0.23580647759279493858 0.069663324204638776838 0
0.23005172022236550222 0.076852471880151707051 0
0.23220086011118273861 0.082184054690075863947 0
0.22646694051209412257 0.081346237778550378739 0
0.22909462700806274005 0.083402704352366921481 0
0.23435000000000000275 0.087515637500000006965 0
0.22861608040091135896 0.086677820588474521757 0
0.23220086011118273861 0.082184054690075863947 0
0.22909462700806274005 0.083402704352366921481 0
0.22288216080182274292 0.085840003676949036548 0
0.22646694051209412257 0.081346237778550378739 0
0.22861608040091135896 0.086677820588474521757 0
0.22909462700806274005 0.083402704352366921481 0
0.24608750000000001457 0.096878909375000002435 0
0.24413125000000002185 0.095318364062499993938 0
0.24804062500000001457 0.095314454687499994279 0
0.24608541666666669534 0.094795576041666662626 0
0.24217500000000000138 0.093757818749999999319 0
0.24608437500000002185 0.09375390937499999966 0
0.24413125000000002185 0.095318364062499993938 0
0.24608541666666669534 0.094795576041666662626 0
0.24999375000000001457 0.09375 0
0.24804062500000001457 0.095314454687499994279 0
0.24608437500000002185 0.09375390937499999966 0
0.24608541666666669534 0.094795576041666662626 0
0.23435000000000000275 0.087515637500000006965 0
0.24216250000000000275 0.081257818750000015973 0
0.24216874999999998819 0.087507818750000007646 0
0.24477083333333335413 0.083338545833333346757 0
0.24997500000000000275 0.075000000000000011102 0
0.24998124999999998819 0.081250000000000016653 0
0.24216250000000000275 0.081257818750000015973 0
0.24477083333333335413 0.083338545833333346757 0
0.24998750000000000138 0.087500000000000008327 0
0.24216874999999998819 0.087507818750000007646 0
0.24998124999999998819 0.081250000000000016653 0
0.24477083333333335413 0.083338545833333346757 0
[...]
POINT_DATA 4332
SCALARS solution double 1
LOOKUP_TABLE default
0.012925472110509872437 0.019250767305493354797 0.019465686753392219543 0.018975114449858665466 0.023332908749580383301 0.023740034550428390503 0.019250767305493354797 0.018975114449858665466 0.022366909310221672058 0.019465686753392219543 0.023740034550428390503 0.018975114449858665466 0 0.015532271005213260651 0.025490272790193557739 0.027825662866234779358 0.034423682838678359985 0.041104495525360107422 0.015532271005213260651 0.027825662866234779358 0.045853123068809509277 0.025490272790193557739 0.041104495525360107422 0.027825662866234779358 0 0.018660081550478935242 0 0.010962917469441890717 0.0286167096346616745 0.013657218776643276215 0.018660081550478935242 0.010962917469441890717 0 0 0.013657218776643276215 0.010962917469441890717 0.014954201877117156982 0.02291243337094783783 0.030317962169647216797 0.030872894451022148132 0.0286167096346616745 0.040202520787715911865 0.02291243337094783783 0.030872894451022148132 0.050197534263134002686 0.030317962169647216797 0.040202520787715911865 0.030872894451022148132 0.30017116665840148926 0.26569515466690063477 0.38579776883125305176 0.33397215604782104492 0.23062384128570556641 0.34999451041221618652 0.26569515466690063477 0.33397215604782104492 0.46757858991622924805 0.38579776883125305176 0.34999451041221618652 0.33397215604782104492 0.089797437191009521484 0.083873040974140167236 0.07771161198616027832 0.077009774744510650635 0.077972345054149627686 0.071120776236057281494 0.083873040974140167236 0.077009774744510650635 0.062534362077713012695 0.07771161198616027832 0.071120776236057281494 0.077009774744510650635 0.030668461695313453674 0.043291918933391571045 0.037041775882244110107 0.042161233723163604736 0.053104996681213378906 0.047437261790037155151 0.043291918933391571045 0.042161233723163604736 0.041617739945650100708 0.037041775882244110107 0.047437261790037155151 0.042161233723163604736 0.055579449981451034546 0.063737064599990844727 0.06838347017765045166 0.068148992955684661865 0.069863349199295043945 0.074302308261394500732 0.063737064599990844727 0.068148992955684661865 0.078742921352386474609 0.06838347017765045166 0.074302308261394500732 0.068148992955684661865 0.017824131995439529419 0.025171918794512748718 0.022045789286494255066 0.024602735415101051331 0.030668461695313453674 0.027840748429298400879 0.025171918794512748718 0.024602735415101051331 0.024992763996124267578 0.022045789286494255066 0.027840748429298400879 0.024602735415101051331 0.062535747885704040527 0.058388818055391311646 0.069850660860538482666 0.064472697675228118896 0.053104996681213378906 0.066763468086719512939 0.058388818055391311646 0.064472697675228118896 0.077972345054149627686 0.069850660860538482666 0.066763468086719512939 0.064472697675228118896 0 0.013657218776643276215 0.012940297834575176239 0.017271960154175758362 0.0286167096346616745 0.02291243337094783783 0.013657218776643276215 0.017271960154175758362 0.014954201877117156982 0.012940297834575176239 0.02291243337094783783 0.017271960154175758362 0.030361425131559371948 0.035687830299139022827 0.037432711571455001831 0.036225136369466781616 0.038326930254697799683 0.04003647342324256897 0.035687830299139022827 0.036225136369466781616 0.042252950370311737061 0.037432711571455001831 0.04003647342324256897 0.036225136369466781616 0.024050688371062278748 0.025478025898337364197 0.019703527912497520447 0.017960401251912117004 0.023332908749580383301 0.019086608663201332092 0.025478025898337364197 0.017960401251912117004 0 0.019703527912497520447 0.019086608663201332092 0.017960401251912117004 0 0.021583709865808486938 0.018660081550478935242 0.025303546339273452759 0.041246697306632995605 0.034313235431909561157 0.021583709865808486938 0.025303546339273452759 0.0286167096346616745 0.018660081550478935242 0.034313235431909561157 0.025303546339273452759 0.041246697306632995605 0.043389037251472473145 0.052869033068418502808 0.050826013088226318359 0.045853123068809509277 0.056617852300405502319 0.043389037251472473145 0.050826013088226318359 0.065112918615341186523 0.052869033068418502808 0.056617852300405502319 0.050826013088226318359 0.024992763996124267578 0.030423488467931747437 0.011426996439695358276 0.020528005436062812805 0.034423682838678359985 0.019024442881345748901 0.030423488467931747437 0.020528005436062812805 0 0.011426996439695358276 0.019024442881345748901 0.020528005436062812805 0.045853123068809509277 0.020213518291711807251 0.025490272790193557739 0.014686239883303642273 0 0 0.020213518291711807251 0.014686239883303642273 0 0.025490272790193557739 0 0.014686239883303642273 0 0 0.0066227721981704235077 0.0043434044346213340759 0 0.010846835561096668243 0 0.0043434044346213340759 0.012925472110509872437 0.0066227721981704235077 0.010846835561096668243 0.0043434044346213340759 0.034628920257091522217 0.031290467828512191772 0.031597323715686798096 0.027177153155207633972 0.023332908749580383301 0.025478025898337364197 0.031290467828512191772 0.027177153155207633972 0.024050688371062278748 0.031597323715686798096 0.025478025898337364197 0.027177153155207633972 0.034423682838678359985 0.015532271005213260651 0.019024442881345748901 0.011131576262414455414 0 0 0.015532271005213260651 0.011131576262414455414 0 0.019024442881345748901 0 0.011131576262414455414 0.034423682838678359985 0.030423488467931747437 0.03764950484037399292 0.033711846917867660522 0.024992763996124267578 0.034042999148368835449 0.030423488467931747437 0.033711846917867660522 0.041617739945650100708 0.03764950484037399292 0.034042999148368835449 0.033711846917867660522 0.017824131995439529419 0.009950139559805393219 0.015893360599875450134 0.010399345308542251587 0 0.0060103521682322025299 0.009950139559805393219 0.010399345308542251587 0.012483354657888412476 0.015893360599875450134 0.0060103521682322025299 0.010399345308542251587 0.024992763996124267578 0.011426996439695358276 0.013821881264448165894 0.0081186704337596893311 0 0 0.011426996439695358276 0.0081186704337596893311 0 0.013821881264448165894 0 0.0081186704337596893311 0.024992763996124267578 0.013821881264448165894 0.022045789286494255066 0.01475604623556137085 0 0.0082741798833012580872 0.013821881264448165894 0.01475604623556137085 0.017824131995439529419 0.022045789286494255066 0.0082741798833012580872 0.01475604623556137085 0.024050688371062278748 0.019703527912497520447 0.021136762574315071106 0.014883889816701412201 0 0.012510179542005062103 0.019703527912497520447 0.014883889816701412201 0.015350109897553920746 0.021136762574315071106 0.012510179542005062103 0.014883889816701412201 0.017824131995439529419 0.0082741798833012580872 0.009950139559805393219 0.0058102007023990154266 0 0 0.0082741798833012580872 0.0058102007023990154266 0 0.009950139559805393219 0 0.0058102007023990154266 0.023332908749580383301 0.029581239446997642517 0.023740034550428390503 0.025514682754874229431 0.031764589250087738037 0.028353095054626464844 0.029581239446997642517 0.025514682754874229431 0.022366909310221672058 0.023740034550428390503 0.028353095054626464844 0.025514682754874229431 0.012483354657888412476 0.017991645261645317078 0.018856653943657875061 0.019169257953763008118 0.022366909310221672058 0.023354105651378631592 0.017991645261645317078 0.019169257953763008118 0.02292847074568271637 0.018856653943657875061 0.023354105651378631592 0.019169257953763008118 0.012483354657888412476 0.0060103521682322025299 0.0072424462996423244476 0.0040825027972459793091 0 0 0.0060103521682322025299 0.0040825027972459793091 0 0.0072424462996423244476 0 0.0040825027972459793091 0.13437432050704956055 0.11857452988624572754 0.1174507439136505127 0.11191747337579727173 0.10090585052967071533 0.10138536244630813599 0.11857452988624572754 0.11191747337579727173 0.10186624526977539062 0.1174507439136505127 0.10138536244630813599 0.11191747337579727173 0.053104996681213378906 0.057690963149070739746 0.066763468086719512939 0.064752362668514251709 0.062534362077713012695 0.071120776236057281494 0.057690963149070739746 0.064752362668514251709 0.077972345054149627686 0.066763468086719512939 0.071120776236057281494 0.064752362668514251709 0.034423682838678359985 0.048548087477684020996 0.041104495525360107422 0.046828515827655792236 0.062535747885704040527 0.05232951045036315918 0.048548087477684020996 0.046828515827655792236 0.045853123068809509277 0.041104495525360107422 0.05232951045036315918 0.046828515827655792236 0.02292847074568271637 0.020672073587775230408 0.018856653943657875061 0.017843918874859809875 0.017824131995439529419 0.015893360599875450134 0.020672073587775230408 0.017843918874859809875 0.012483354657888412476 0.018856653943657875061 0.015893360599875450134 0.017843918874859809875 0.031764589250087738037 0.029581239446997642517 0.034173507243394851685 0.0297326650470495224 0.023332908749580383301 0.031290467828512191772 0.029581239446997642517 0.0297326650470495224 0.034628920257091522217 0.034173507243394851685 0.031290467828512191772 0.0297326650470495224 0.048872351646423339844 0.042104694992303848267 0.043533060699701309204 0.038617253303527832031 0.031764589250087738037 0.034173507243394851685 0.042104694992303848267 0.038617253303527832031 0.034628920257091522217 0.043533060699701309204 0.034173507243394851685 0.038617253303527832031 0.10090585052967071533 0.11857452988624572754 0.10226070135831832886 0.11337795108556747437 0.13437432050704956055 0.12015983462333679199 0.11857452988624572754 0.11337795108556747437 0.10352910310029983521 0.10226070135831832886 0.12015983462333679199 0.11337795108556747437 0.062535747885704040527 0.048548087477684020996 0.053289033472537994385 0.046207029372453689575 0.034423682838678359985 0.03764950484037399292 0.048548087477684020996 0.046207029372453689575 0.041617739945650100708 0.053289033472537994385 0.03764950484037399292 0.046207029372453689575 0.041617739945650100708 0.034042999148368835449 0.037041775882244110107 0.032698053866624832153 0.024992763996124267578 0.027840748429298400879 0.034042999148368835449 0.032698053866624832153 0.030668461695313453674 0.037041775882244110107 0.027840748429298400879 0.032698053866624832153 0.030361425131559371948 0.029174555093050003052 0.025049189105629920959 0.02318520471453666687 0.024050688371062278748 0.021136762574315071106 0.029174555093050003052 0.02318520471453666687 0.015350109897553920746 0.025049189105629920959 0.021136762574315071106 0.02318520471453666687 0.02292847074568271637 0.027735216543078422546 0.020672073587775230408 0.024049412459135055542 0.030668461695313453674 0.025171918794512748718 0.027735216543078422546 0.024049412459135055542 0.017824131995439529419 0.020672073587775230408 0.025171918794512748718 0.024049412459135055542 0.022366909310221672058 0.031791985034942626953 0.023354105651378631592 0.027940059080719947815 0.037321582436561584473 0.031199671328067779541 0.031791985034942626953 0.027940059080719947815 0.02292847074568271637 0.023354105651378631592 0.031199671328067779541 0.027940059080719947815 0.02292847074568271637 0.031199671328067779541 0.027735216543078422546 0.030151730403304100037 0.037321582436561584473 0.03400481492280960083 0.031199671328067779541 0.030151730403304100037 0.030668461695313453674 0.027735216543078422546 0.03400481492280960083 0.030151730403304100037 0.1868241429328918457 0.23689630627632141113 0.22149559855461120605 0.24363458156585693359 0.28653311729431152344 0.27292874455451965332 0.23689630627632141113 0.24363458156585693359 0.25847429037094116211 0.22149559855461120605 0.27292874455451965332 0.24363458156585693359 0.030361425131559371948 0.037432711571455001831 0.033042524009943008423 0.035331793129444122314 0.042252950370311737061 0.039871960878372192383 0.037432711571455001831 0.035331793129444122314 0.034628920257091522217 0.033042524009943008423 0.039871960878372192383 0.035331793129444122314 0.0093299653381109237671 0.011411400511860847473 0.020281931385397911072 0.017252542078495025635 0.012279254384338855743 0.020468180999159812927 0.011411400511860847473 0.017252542078495025635 0.031083587557077407837 0.020281931385397911072 0.020468180999159812927 0.017252542078495025635 0.038326930254697799683 0.035687830299139022827 0.033477712422609329224 0.031561110168695449829 0.030361425131559371948 0.028913587331771850586 0.035687830299139022827 0.031561110168695449829 0.02655513957142829895 0.033477712422609329224 0.028913587331771850586 0.031561110168695449829 0.036006506532430648804 0.037221245467662811279 0.043713521212339401245 0.04086737707257270813 0.037694867700338363647 0.04360267147421836853 0.037221245467662811279 0.04086737707257270813 0.050170727074146270752 0.043713521212339401245 0.04360267147421836853 0.04086737707257270813 0 0.0066227721981704235077 0.0072424462996423244476 0.0083273975178599357605 0.012925472110509872437 0.013518714345991611481 0.0066227721981704235077 0.0083273975178599357605 0.012483354657888412476 0.0072424462996423244476 0.013518714345991611481 0.0083273975178599357605 0 0.004215043969452381134 0.0057388837449252605438 0.0061605069786310195923 0.0073122200556099414825 0.0092775393277406692505 0.004215043969452381134 0.0061605069786310195923 0.01117765624076128006 0.0057388837449252605438 0.0092775393277406692505 0.0061605069786310195923 0.055579449981451034546 0.06838347017765045166 0.059352170675992965698 0.06591008603572845459 0.078742921352386474609 0.071943566203117370605 0.06838347017765045166 0.06591008603572845459 0.063605479896068572998 0.059352170675992965698 0.071943566203117370605 0.06591008603572845459 0.050170727074146270752 0.061053872108459472656 0.053155664354562759399 0.05877998843789100647 0.069863349199295043945 0.063737064599990844727 0.061053872108459472656 0.05877998843789100647 0.055579449981451034546 0.053155664354562759399 0.063737064599990844727 0.05877998843789100647 0.062534362077713012695 0.066205956041812896729 0.07771161198616027832 0.074356578290462493896 0.069451026618480682373 0.080650545656681060791 0.066205956041812896729 0.074356578290462493896 0.089797437191009521484 0.07771161198616027832 0.080650545656681060791 0.074356578290462493896 0.01117765624076128006 0.0092775393277406692505 0.016311788931488990784 0.012806682847440242767 0.0073122200556099414825 0.013907253742218017578 0.0092775393277406692505 0.012806682847440242767 0.019432485103607177734 0.016311788931488990784 0.013907253742218017578 0.012806682847440242767 0.036805104464292526245 0.050087958574295043945 0.039758343249559402466 0.047842074185609817505 0.062777727842330932617 0.05396798253059387207 0.050087958574295043945 0.047842074185609817505 0.042986232787370681763 0.039758343249559402466 0.05396798253059387207 0.047842074185609817505 0 0.0067657525651156902313 0.0080116363242268562317 0.0087216868996620178223 0.01117765624076128006 0.013436308130621910095 0.0067657525651156902313 0.0087216868996620178223 0.015350109897553920746 0.0080116363242268562317 0.013436308130621910095 0.0087216868996620178223 0.015350109897553920746 0.012510179542005062103 0.0080116363242268562317 0.0056040533818304538727 0 0 0.012510179542005062103 0.0056040533818304538727 0 0.0080116363242268562317 0 0.0056040533818304538727 0.015350109897553920746 0.013436308130621910095 0.022830521687865257263 0.018051559105515480042 0.01117765624076128006 0.020140117034316062927 0.013436308130621910095 0.018051559105515480042 0.02655513957142829895 0.022830521687865257263 0.020140117034316062927 0.018051559105515480042 0.030361425131559371948 0.025049189105629920959 0.028913587331771850586 0.024135967716574668884 0.015350109897553920746 0.022830521687865257263 0.025049189105629920959 0.024135967716574668884 0.02655513957142829895 0.028913587331771850586 0.022830521687865257263 0.024135967716574668884 0 0.0035497769713401794434 0 0.0024474002420902252197 0.0073122200556099414825 0.004215043969452381134 0.0035497769713401794434 0.0024474002420902252197 0 0 0.004215043969452381134 0.0024474002420902252197 0 0 0.0067657525651156902313 0.0040123751387000083923 0 0.0057388837449252605438 0 0.0040123751387000083923 0.01117765624076128006 0.0067657525651156902313 0.0057388837449252605438 0.0040123751387000083923 0.019432485103607177734 0.013907253742218017578 0.014713957905769348145 0.012261295691132545471 0.0073122200556099414825 0.0093781575560569763184 0.013907253742218017578 0.012261295691132545471 0.010646250098943710327 0.014713957905769348145 0.0093781575560569763184 0.012261295691132545471 0.11119113117456436157 0.10135836899280548096 0.096099309623241424561 0.093963928520679473877 0.091900616884231567383 0.085552357137203216553 0.10135836899280548096 0.093963928520679473877 0.077972345054149627686 0.096099309623241424561 0.085552357137203216553 0.093963928520679473877 0.043119855225086212158 0.048879478126764297485 0.061150528490543365479 0.058287236839532852173 0.050197534263134002686 0.064567185938358306885 0.048879478126764297485 0.058287236839532852173 0.07928857952356338501 0.061150528490543365479 0.064567185938358306885 0.058287236839532852173 0.019432485103607177734 0.023272946476936340332 0.016311788931488990784 0.019213303923606872559 0.02655513957142829895 0.020140117034316062927 0.023272946476936340332 0.019213303923606872559 0.01117765624076128006 0.016311788931488990784 0.020140117034316062927 0.019213303923606872559 0.042252950370311737061 0.054833408445119857788 0.046353597193956375122 0.051869936287403106689 0.063605479896068572998 0.057191997766494750977 0.054833408445119857788 0.051869936287403106689 0.048872351646423339844 0.046353597193956375122 0.057191997766494750977 0.051869936287403106689 0 0.0049263969995081424713 0 0.0034515352454036474228 0.010646250098943710327 0.0059229633770883083344 0.0049263969995081424713 0.0034515352454036474228 0 0 0.0059229633770883083344 0.0034515352454036474228 0 0.0059229633770883083344 0.0035497769713401794434 0.0062129027210175991058 0.010646250098943710327 0.0093781575560569763184 0.0059229633770883083344 0.0062129027210175991058 0.0073122200556099414825 0.0035497769713401794434 0.0093781575560569763184 0.0062129027210175991058 0.048872351646423339844 0.060795877128839492798 0.056433547288179397583 0.06033099442720413208 0.069451026618480682373 0.066205956041812896729 0.060795877128839492798 0.06033099442720413208 0.062534362077713012695 0.056433547288179397583 0.066205956041812896729 0.06033099442720413208 0.041617739945650100708 0.047437261790037155151 0.053289033472537994385 0.052757583558559417725 0.053104996681213378906 0.058388818055391311646 0.047437261790037155151 0.052757583558559417725 0.062535747885704040527 0.053289033472537994385 0.058388818055391311646 0.052757583558559417725 0.055579449981451034546 0.049578607082366943359 0.048446867614984512329 0.045130606740713119507 0.042252950370311737061 0.04003647342324256897 0.049578607082366943359 0.045130606740713119507 0.038326930254697799683 0.048446867614984512329 0.04003647342324256897 0.045130606740713119507 0.1451889723539352417 0.13983862102031707764 0.12483634799718856812 0.12709546089172363281 0.13437432050704956055 0.1174507439136505127 0.13983862102031707764 0.12709546089172363281 0.10186624526977539062 0.12483634799718856812 0.1174507439136505127 0.12709546089172363281 0.046074647456407546997 0.041778020560741424561 0.048835065215826034546 0.044265847653150558472 0.035856932401657104492 0.044145457446575164795 0.041778020560741424561 0.044265847653150558472 0.050170727074146270752 0.048835065215826034546 0.044145457446575164795 0.044265847653150558472 0.010646250098943710327 0.018319388851523399353 0.014713957905769348145 0.018302446231245994568 0.024988101795315742493 0.022821189835667610168 0.018319388851523399353 0.018302446231245994568 0.019432485103607177734 0.014713957905769348145 0.022821189835667610168 0.018302446231245994568 0 0.0045467694289982318878 0.0088141504675149917603 0.0086037926375865936279 0.0084452377632260322571 0.012707517482340335846 0.0045467694289982318878 0.0086037926375865936279 0.017202893272042274475 0.