# vtk DataFile Version 3.0
#This file was generated by the deal.II library on 2022/4/28 at 19:02:46
ASCII
DATASET UNSTRUCTURED_GRID

POINTS 552 double
0 0 0
0.050000000000000002776 0.050000000000000002776 0
0 0.125 0
0.033333333333333332871 0.11666666666666665464 0
0.10000000000000000555 0.10000000000000000555 0
0.050000000000000002776 0.1749999999999999889 0
0.050000000000000002776 0.050000000000000002776 0
0.033333333333333332871 0.11666666666666665464 0
0 0.25 0
0 0.125 0
0.050000000000000002776 0.1749999999999999889 0
0.033333333333333332871 0.11666666666666665464 0
0.75 0 0
0.875 0 0
0.82499999999999995559 0.050000000000000002776 0
0.88333333333333330373 0.033333333333333332871 0
1 0 0
0.94999999999999995559 0.050000000000000002776 0
0.875 0 0
0.88333333333333330373 0.033333333333333332871 0
0.9000000000000000222 0.10000000000000000555 0
0.82499999999999995559 0.050000000000000002776 0
0.94999999999999995559 0.050000000000000002776 0
0.88333333333333330373 0.033333333333333332871 0
0.4000000000000000222 0.70000000000000006661 0
0.3562500000000000111 0.77187500000000008882 0
0.29920343137254901134 0.68789828431372557205 0
0.30363562091503265572 0.73984885620915041837 0
0.3125 0.84375 0
0.25545343137254905574 0.75977328431372548323 0
0.3562500000000000111 0.77187500000000008882 0
0.30363562091503265572 0.73984885620915041837 0
0.19840686274509805598 0.67579656862745096646 0
0.29920343137254901134 0.68789828431372557205 0
0.25545343137254905574 0.75977328431372548323 0
0.30363562091503265572 0.73984885620915041837 0
1 0.5 0
0.8499999999999999778 0.5 0
0.9000000000000000222 0.4000000000000000222 0
0.83333333333333337034 0.43333333333333334814 0
0.69999999999999995559 0.5 0
0.75 0.4000000000000000222 0
0.8499999999999999778 0.5 0
0.83333333333333337034 0.43333333333333334814 0
0.80000000000000004441 0.2999999999999999889 0
0.9000000000000000222 0.4000000000000000222 0
0.75 0.4000000000000000222 0
0.83333333333333337034 0.43333333333333334814 0
0.625 1 0
0.65625 0.921875 0
0.6875 1 0
0.6875 0.94791666666666662966 0
0.6875 0.84375 0
0.71875 0.921875 0
0.65625 0.921875 0
0.6875 0.94791666666666662966 0
0.75 1 0
0.6875 1 0
0.71875 0.921875 0
0.6875 0.94791666666666662966 0
0.10000000000000000555 0.10000000000000000555 0
0.1749999999999999889 0.050000000000000002776 0
0.2000000000000000111 0.10000000000000000555 0
0.21666666666666664631 0.066666666666666665741 0
0.25 0 0
0.2750000000000000222 0.050000000000000002776 0
0.1749999999999999889 0.050000000000000002776 0
0.21666666666666664631 0.066666666666666665741 0
0.2999999999999999889 0.10000000000000000555 0
0.2000000000000000111 0.10000000000000000555 0
0.2750000000000000222 0.050000000000000002776 0
0.21666666666666664631 0.066666666666666665741 0
0.19840686274509805598 0.67579656862745096646 0
0.24920343137254902244 0.58789828431372548323 0
0.29920343137254901134 0.68789828431372557205 0
0.29946895424836600386 0.62526552287581704803 0
0.2999999999999999889 0.5 0
0.3499999999999999778 0.60000000000000008882 0
0.24920343137254902244 0.58789828431372548323 0
0.29946895424836600386 0.62526552287581704803 0
0.4000000000000000222 0.70000000000000006661 0
0.29920343137254901134 0.68789828431372557205 0
0.3499999999999999778 0.60000000000000008882 0
0.29946895424836600386 0.62526552287581704803 0
0.9000000000000000222 0.10000000000000000555 0
0.94999999999999995559 0.1749999999999999889 0
0.85000000000000008882 0.2000000000000000111 0
0.9000000000000000222 0.21666666666666664631 0
1 0.25 0
0.9000000000000000222 0.2750000000000000222 0
0.94999999999999995559 0.1749999999999999889 0
0.9000000000000000222 0.21666666666666664631 0
0.80000000000000004441 0.2999999999999999889 0
0.85000000000000008882 0.2000000000000000111 0
0.9000000000000000222 0.2750000000000000222 0
0.9000000000000000222 0.21666666666666664631 0
0.5 0.9000000000000000222 0
0.4375 0.94999999999999995559 0
0.40625 0.87187499999999995559 0
0.39583333333333331483 0.91458333333333330373 0
0.375 1 0
0.34375 0.921875 0
0.4375 0.94999999999999995559 0
0.39583333333333331483 0.91458333333333330373 0
0.3125 0.84375 0
0.40625 0.87187499999999995559 0
0.34375 0.921875 0
0.39583333333333331483 0.91458333333333330373 0
0.4000000000000000222 0.10000000000000000555 0
0.3499999999999999778 0.10000000000000000555 0
0.3875000000000000111 0.050000000000000002776 0
0.35833333333333333703 0.066666666666666665741 0
0.2999999999999999889 0.10000000000000000555 0
0.3375000000000000222 0.050000000000000002776 0
0.3499999999999999778 0.10000000000000000555 0
0.35833333333333333703 0.066666666666666665741 0
0.375 0 0
0.3875000000000000111 0.050000000000000002776 0
0.3375000000000000222 0.050000000000000002776 0
0.35833333333333333703 0.066666666666666665741 0
0.70000000000000006661 0.10000000000000000555 0
0.66250000000000008882 0.050000000000000002776 0
0.72500000000000008882 0.050000000000000002776 0
0.69166666666666676289 0.033333333333333332871 0
0.625 0 0
0.6875 0 0
0.66250000000000008882 0.050000000000000002776 0
0.69166666666666676289 0.033333333333333332871 0
0.75 0 0
0.72500000000000008882 0.050000000000000002776 0
0.6875 0 0
0.69166666666666676289 0.033333333333333332871 0
0.5 0.9000000000000000222 0
0.5625 0.94999999999999995559 0
0.5 0.94999999999999995559 0
0.54166666666666662966 0.96666666666666667407 0
0.625 1 0
0.5625 1 0
0.5625 0.94999999999999995559 0
0.54166666666666662966 0.96666666666666667407 0
0.5 1 0
0.5 0.94999999999999995559 0
0.5625 1 0
0.54166666666666662966 0.96666666666666667407 0
0.5999999999999999778 0.10000000000000000555 0
0.55000000000000004441 0.050000000000000002776 0
0.61250000000000004441 0.050000000000000002776 0
0.57500000000000006661 0.033333333333333332871 0
0.5 0 0
0.5625 0 0
0.55000000000000004441 0.050000000000000002776 0
0.57500000000000006661 0.033333333333333332871 0
0.625 0 0
0.61250000000000004441 0.050000000000000002776 0
0.5625 0 0
0.57500000000000006661 0.033333333333333332871 0
0.10000000000000000555 0.10000000000000000555 0
0.050000000000000002776 0.050000000000000002776 0
0.1749999999999999889 0.050000000000000002776 0
0.11666666666666665464 0.033333333333333332871 0
0 0 0
0.125 0 0
0.050000000000000002776 0.050000000000000002776 0
0.11666666666666665464 0.033333333333333332871 0
0.25 0 0
0.1749999999999999889 0.050000000000000002776 0
0.125 0 0
0.11666666666666665464 0.033333333333333332871 0
0.9000000000000000222 0.10000000000000000555 0
0.94999999999999995559 0.050000000000000002776 0
0.94999999999999995559 0.1749999999999999889 0
0.96666666666666667407 0.11666666666666665464 0
1 0 0
1 0.125 0
0.94999999999999995559 0.050000000000000002776 0
0.96666666666666667407 0.11666666666666665464 0
1 0.25 0
0.94999999999999995559 0.1749999999999999889 0
1 0.125 0
0.96666666666666667407 0.11666666666666665464 0
0 0.5 0
0.10000000000000000555 0.4000000000000000222 0
0.14999999999999999445 0.5 0
0.16666666666666665741 0.43333333333333334814 0
0.2000000000000000111 0.2999999999999999889 0
0.25 0.4000000000000000222 0
0.10000000000000000555 0.4000000000000000222 0
0.16666666666666665741 0.43333333333333334814 0
0.2999999999999999889 0.5 0
0.14999999999999999445 0.5 0
0.25 0.4000000000000000222 0
0.16666666666666665741 0.43333333333333334814 0
0.75 0 0
0.82499999999999995559 0.050000000000000002776 0
0.72500000000000008882 0.050000000000000002776 0
0.78333333333333332593 0.066666666666666665741 0
0.9000000000000000222 0.10000000000000000555 0
0.80000000000000004441 0.10000000000000000555 0
0.82499999999999995559 0.050000000000000002776 0
0.78333333333333332593 0.066666666666666665741 0
0.70000000000000006661 0.10000000000000000555 0
0.72500000000000008882 0.050000000000000002776 0
0.80000000000000004441 0.10000000000000000555 0
0.78333333333333332593 0.066666666666666665741 0
0.4000000000000000222 0.10000000000000000555 0
0.4500000000000000111 0.050000000000000002776 0
0.4500000000000000111 0.10000000000000000555 0
0.46666666666666661856 0.066666666666666665741 0
0.5 0 0
0.5 0.050000000000000002776 0
0.4500000000000000111 0.050000000000000002776 0
0.46666666666666661856 0.066666666666666665741 0
0.5 0.10000000000000000555 0
0.4500000000000000111 0.10000000000000000555 0
0.5 0.050000000000000002776 0
0.46666666666666661856 0.066666666666666665741 0
0.5 0 0
0.4500000000000000111 0.050000000000000002776 0
0.4375 0 0
0.4249999999999999889 0.033333333333333332871 0
0.4000000000000000222 0.10000000000000000555 0
0.3875000000000000111 0.050000000000000002776 0
0.4500000000000000111 0.050000000000000002776 0
0.4249999999999999889 0.033333333333333332871 0
0.375 0 0
0.4375 0 0
0.3875000000000000111 0.050000000000000002776 0
0.4249999999999999889 0.033333333333333332871 0
0.25 1 0
0.28125 0.921875 0
0.3125 1 0
0.3125 0.94791666666666662966 0
0.3125 0.84375 0
0.34375 0.921875 0
0.28125 0.921875 0
0.3125 0.94791666666666662966 0
0.375 1 0
0.3125 1 0
0.34375 0.921875 0
0.3125 0.94791666666666662966 0
0.2999999999999999889 0.10000000000000000555 0
0.2750000000000000222 0.050000000000000002776 0
0.3375000000000000222 0.050000000000000002776 0
0.30833333333333334814 0.033333333333333332871 0
0.25 0 0
0.3125 0 0
0.2750000000000000222 0.050000000000000002776 0
0.30833333333333334814 0.033333333333333332871 0
0.375 0 0
0.3375000000000000222 0.050000000000000002776 0
0.3125 0 0
0.30833333333333334814 0.033333333333333332871 0
0.625 0 0
0.66250000000000008882 0.050000000000000002776 0
0.61250000000000004441 0.050000000000000002776 0
0.64166666666666671848 0.066666666666666665741 0
0.70000000000000006661 0.10000000000000000555 0
0.6500000000000000222 0.10000000000000000555 0
0.66250000000000008882 0.050000000000000002776 0
0.64166666666666671848 0.066666666666666665741 0
0.5999999999999999778 0.10000000000000000555 0
0.61250000000000004441 0.050000000000000002776 0
0.6500000000000000222 0.10000000000000000555 0
0.64166666666666671848 0.066666666666666665741 0
0.5999999999999999778 0.70000000000000006661 0
0.64999999999999991118 0.60000000000000008882 0
0.70079656862745098866 0.68789828431372557205 0
[...]
POINT_DATA 552
SCALARS solution double 1
LOOKUP_TABLE default
0 0.0016031883424147963524 0 0.001222267630510032177 0 0.0023722047917544841766 0.0016031883424147963524 0.001222267630510032177 0 0 0.0023722047917544841766 0.001222267630510032177 0 0 0.0013596497010439634323 0.0010015921434387564659 0 0.0016031883424147963524 0 0.0010015921434387564659 0 0.0013596497010439634323 0.0016031883424147963524 0.0010015921434387564659 0 0.0089820614084601402283 0.010921596549451351166 0.012209328822791576385 0.012042235583066940308 0.014956493861973285675 0.0089820614084601402283 0.012209328822791576385 0.015088690444827079773 0.010921596549451351166 0.014956493861973285675 0.012209328822791576385 0 0.010605925694108009338 0.0073335669003427028656 0.0080435182899236679077 0 0 0.010605925694108009338 0.0080435182899236679077 0 0.0073335669003427028656 0 0.0080435182899236679077 0 0.0078122313134372234344 0 0.0062169656157493591309 0.012042235583066940308 0.0090003311634063720703 0.0078122313134372234344 0.0062169656157493591309 0 0 0.0090003311634063720703 0.0062169656157493591309 0 0.0013596497010439634323 0 0.0010979404905810952187 0 0.0012632563011720776558 0.0013596497010439634323 0.0010979404905810952187 0 0 0.0012632563011720776558 0.0010979404905810952187 0.015088690444827079773 0.010385199449956417084 0.010921596549451351166 0.0079445671290159225464 0 0 0.010385199449956417084 0.0079445671290159225464 0 0.010921596549451351166 0 0.0079445671290159225464 0 0.0023722047917544841766 0 0.0028717997483909130096 0 0.0043771220371127128601 0.0023722047917544841766 0.0028717997483909130096 0 0 0.0043771220371127128601 0.0028717997483909130096 0 0.0038552940823137760162 0.0067507605999708175659 0.0062492033466696739197 0 0.0078122313134372234344 0.0038552940823137760162 0.0062492033466696739197 0.012042235583066940308 0.0067507605999708175659 0.0078122313134372234344 0.0062492033466696739197 0 0 0.0012504151090979576111 0.0011107178870588541031 0 0.0012524490011855959892 0 0.0011107178870588541031 0 0.0012504151090979576111 0.0012524490011855959892 0.0011107178870588541031 0 0.0012524490011855959892 0.0012632563011720776558 0.0011063417186960577965 0 0 0.0012524490011855959892 0.0011063417186960577965 0 0.0012632563011720776558 0 0.0011063417186960577965 0 0.0038552940823137760162 0.0029142871499061584473 0.0023165240418165922165 0 0 0.0038552940823137760162 0.0023165240418165922165 0 0.0029142871499061584473 0 0.0023165240418165922165 0 0.0012500646989792585373 0.0012504151090979576111 0.0011109309270977973938 0 0 0.0012500646989792585373 0.0011109309270977973938 0 0.0012504151090979576111 0 0.0011109309270977973938 0 0.0016031883424147963524 0.0013596497010439634323 0.0010015921434387564659 0 0 0.0016031883424147963524 0.0010015921434387564659 0 0.0013596497010439634323 0 0.0010015921434387564659 0 0.0016031883424147963524 0.0023722047917544841766 0.001222267630510032177 0 0 0.0016031883424147963524 0.001222267630510032177 0 0.0023722047917544841766 0 0.001222267630510032177 0 0.0073335669003427028656 0.010605925694108009338 0.0080435182899236679077 0 0 0.0073335669003427028656 0.0080435182899236679077 0 0.010605925694108009338 0 0.0080435182899236679077 0 0.0013596497010439634323 0.0012632563011720776558 0.0010979404905810952187 0 0 0.0013596497010439634323 0.0010979404905810952187 0 0.0012632563011720776558 0 0.0010979404905810952187 0 0.0012500646989792585373 0 0.0011111048515886068344 0 0.0012500175507739186287 0.0012500646989792585373 0.0011111048515886068344 0 0 0.0012500175507739186287 0.0011111048515886068344 0 0.0012500646989792585373 0 0.0011109309270977973938 0 0.0012504151090979576111 0.0012500646989792585373 0.0011109309270977973938 0 0 0.0012504151090979576111 0.0011109309270977973938 0 0.0090003311634063720703 0 0.0062169656157493591309 0.012042235583066940308 0.0078122313134372234344 0.0090003311634063720703 0.0062169656157493591309 0 0 0.0078122313134372234344 0.0062169656157493591309 0 0.0012632563011720776558 0.0012524490011855959892 0.0011063417186960577965 0 0 0.0012632563011720776558 0.0011063417186960577965 0 0.0012524490011855959892 0 0.0011063417186960577965 0 0.0012524490011855959892 0.0012504151090979576111 0.0011107178870588541031 0 0 0.0012524490011855959892 0.0011107178870588541031 0 0.0012504151090979576111 0 0.0011107178870588541031 0 0 0.010921596549451351166 0.0079445671290159225464 0 0.010385199449956417084 0 0.0079445671290159225464 0.015088690444827079773 0.010921596549451351166 0.010385199449956417084 0.0079445671290159225464 0 0.0012500646989792585373 0.0012500175507739186287 0.0011111048515886068344 0 0 0.0012500646989792585373 0.0011111048515886068344 0 0.0012500175507739186287 0 0.0011111048515886068344 0 0.0029142871499061584473 0.0038552940823137760162 0.0023165240418165922165 0 0 0.0029142871499061584473 0.0023165240418165922165 0 0.0038552940823137760162 0 0.0023165240418165922165 0.012042235583066940308 0.0067507605999708175659 0.0089820614084601402283 0.0057308920659124851227 0 0 0.0067507605999708175659 0.0057308920659124851227 0 0.0089820614084601402283 0 0.0057308920659124851227 0 0.0086186835542321205139 0 0.0053123477846384048462 0.011623674072325229645 0.0049248053692281246185 0.0086186835542321205139 0.0053123477846384048462 0 0 0.0049248053692281246185 0.0053123477846384048462 0 0.0073335669003427028656 0.0043771220371127128601 0.0052022677846252918243 0 0 0.0073335669003427028656 0.0052022677846252918243 0 0.0043771220371127128601 0 0.0052022677846252918243 0.015088690444827079773 0.014956493861973285675 0.010921596549451351166 0.012209328822791576385 0.012042235583066940308 0.0089820614084601402283 0.014956493861973285675 0.012209328822791576385 0 0.010921596549451351166 0.0089820614084601402283 0.012209328822791576385 0.012042235583066940308 0.0089820614084601402283 0.0067507605999708175659 0.0057308920659124851227 0 0 0.0089820614084601402283 0.0057308920659124851227 0 0.0067507605999708175659 0 0.0057308920659124851227 0.012042235583066940308 0.0078122313134372234344 0.0067507605999708175659 0.0062492033466696739197 0 0.0038552940823137760162 0.0078122313134372234344 0.0062492033466696739197 0 0.0067507605999708175659 0.0038552940823137760162 0.0062492033466696739197 0.015088690444827079773 0.010956232436001300812 0.010385199449956417084 0.01233091205358505249 0 0.010605925694108009338 0.010956232436001300812 0.01233091205358505249 0 0.010385199449956417084 0.010605925694108009338 0.01233091205358505249 0.015088690444827079773 0.010956232436001300812 0.012002199888229370117 0.0087670525535941123962 0 0 0.010956232436001300812 0.0087670525535941123962 0 0.012002199888229370117 0 0.0087670525535941123962 0 0.0090003311634063720703 0.0082973726093769073486 0.010862751863896846771 0.012042235583066940308 0.013725515455007553101 0.0090003311634063720703 0.010862751863896846771 0.011623674072325229645 0.0082973726093769073486 0.013725515455007553101 0.010862751863896846771 0.011623674072325229645 0.015211564488708972931 0.013725515455007553101 0.015403077006340026855 0.015088690444827079773 0.014956493861973285675 0.015211564488708972931 0.015403077006340026855 0.012042235583066940308 0.013725515455007553101 0.014956493861973285675 0.015403077006340026855 0 0.0082973726093769073486 0.0090003311634063720703 0.010862751863896846771 0.011623674072325229645 0.013725515455007553101 0.0082973726093769073486 0.010862751863896846771 0.012042235583066940308 0.0090003311634063720703 0.013725515455007553101 0.010862751863896846771 0 0.010956232436001300812 0 0.0087670525535941123962 0.015088690444827079773 0.012002199888229370117 0.010956232436001300812 0.0087670525535941123962 0 0 0.012002199888229370117 0.0087670525535941123962 0 0.0049248053692281246185 0 0.0052450112998485565186 0.011623674072325229645 0.0082973726093769073486 0.0049248053692281246185 0.0052450112998485565186 0 0 0.0082973726093769073486 0.0052450112998485565186 0.011623674072325229645 0.0049248053692281246185 0.0082973726093769073486 0.0052450112998485565186 0 0 0.0049248053692281246185 0.0052450112998485565186 0 0.0082973726093769073486 0 0.0052450112998485565186 0 0.010956232436001300812 0.010605925694108009338 0.01233091205358505249 0.015088690444827079773 0.010385199449956417084 0.010956232436001300812 0.01233091205358505249 0 0.010605925694108009338 0.010385199449956417084 0.01233091205358505249 0.015088690444827079773 0.015211564488708972931 0.012002199888229370117 0.012702471576631069183 0.011623674072325229645 0.0086186835542321205139 0.015211564488708972931 0.012702471576631069183 0 0.012002199888229370117 0.0086186835542321205139 0.012702471576631069183 0.011623674072325229645 0.015211564488708972931 0.0086186835542321205139 0.012702471576631069183 0.015088690444827079773 0.012002199888229370117 0.015211564488708972931 0.012702471576631069183 0 0.0086186835542321205139 0.012002199888229370117 0.012702471576631069183 0.015088690444827079773 0.015211564488708972931 0.014956493861973285675 0.015403077006340026855 0.011623674072325229645 0.013725515455007553101 0.015211564488708972931 0.015403077006340026855 0.012042235583066940308 0.014956493861973285675 0.013725515455007553101 0.015403077006340026855 0 0.0049248053692281246185 0 0.0053123477846384048462 0.011623674072325229645 0.0086186835542321205139 0.0049248053692281246185 0.0053123477846384048462 0 0 0.0086186835542321205139 0.0053123477846384048462 0 0.0023722047917544841766 0.0043771220371127128601 0.0028717997483909130096 0 0 0.0023722047917544841766 0.0028717997483909130096 0 0.0043771220371127128601 0 0.0028717997483909130096 0 0.0073335669003427028656 0 0.0052022677846252918243 0 0.0043771220371127128601 0.0073335669003427028656 0.0052022677846252918243 0 0 0.0043771220371127128601 0.0052022677846252918243 
