# vtk DataFile Version 3.0
#This file was generated by the deal.II library on 2019/3/29 at 23:27:28
ASCII
DATASET UNSTRUCTURED_GRID

POINTS 92388 double
0.01338 0.0447848 0
0.012883 0.04976 0
0.00668999 0.0536424 0
0.00858868 0.0540067 0
0.012386 0.0547353 0
0.00619302 0.0586176 0
0.012883 0.04976 0
0.00858868 0.0540067 0
0 0.0625 0
0.00668999 0.0536424 0
0.00619302 0.0586176 0
0.00858868 0.0540067 0
0 0.03125 0
0.00668999 0.0380174 0
0 0.046875 0
0.00445999 0.0461783 0
0.01338 0.0447848 0
0.00668999 0.0536424 0
0.00668999 0.0380174 0
0.00445999 0.0461783 0
0 0.0625 0
0 0.046875 0
0.00668999 0.0536424 0
0.00445999 0.0461783 0
0.111307 0.421154 0
0.111304 0.421212 0
0.111263 0.421181 0
0.111276 0.421211 0
0.111302 0.42127 0
0.111261 0.421239 0
0.111304 0.421212 0
0.111276 0.421211 0
0.11122 0.421208 0
0.111263 0.421181 0
0.111261 0.421239 0
0.111276 0.421211 0
0.111926 0.421769 0
0.111941 0.421831 0
0.111882 0.421807 0
0.111906 0.421835 0
0.111956 0.421893 0
0.111897 0.421869 0
0.111941 0.421831 0
0.111906 0.421835 0
0.111838 0.421844 0
0.111882 0.421807 0
0.111897 0.421869 0
0.111906 0.421835 0
0.11346 0.422552 0
0.113399 0.422655 0
0.113289 0.422494 0
0.113305 0.422582 0
0.113338 0.422757 0
0.113228 0.422597 0
0.113399 0.422655 0
0.113305 0.422582 0
0.113117 0.422437 0
0.113289 0.422494 0
0.113228 0.422597 0
0.113305 0.422582 0
0.012386 0.0547353 0
0.0121699 0.0597306 0
0.00619302 0.0586176 0
0.00811327 0.0606537 0
0.0119538 0.064726 0
0.00597688 0.063613 0
0.0121699 0.0597306 0
0.00811327 0.0606537 0
0 0.0625 0
0.00619302 0.0586176 0
0.00597688 0.063613 0
0.00811327 0.0606537 0
0.111449 0.421338 0
0.111428 0.421281 0
0.11149 0.421278 0
0.111462 0.42126 0
0.111408 0.421223 0
0.111469 0.421221 0
0.111428 0.421281 0
0.111462 0.42126 0
0.11153 0.421219 0
0.11149 0.421278 0
0.111469 0.421221 0
0.111462 0.42126 0
0.0153165 0.034974 0
0.00765825 0.033112 0
0.0172545 0.0303648 0
0.011503 0.0306599 0
0 0.03125 0
0.00959622 0.0285028 0
0.00765825 0.033112 0
0.011503 0.0306599 0
0.0191924 0.0257556 0
0.0172545 0.0303648 0
0.00959622 0.0285028 0
0.011503 0.0306599 0
0.0242407 0.0443303 0
0.0188108 0.0445576 0
0.0197791 0.0396522 0
0.0176464 0.0413631 0
0.013381 0.0447849 0
0.0143492 0.0398795 0
0.0188108 0.0445576 0
0.0176464 0.0413631 0
0.0153175 0.0349742 0
0.0197791 0.0396522 0
0.0143492 0.0398795 0
0.0176464 0.0413631 0
0.111471 0.421574 0
0.111545 0.421548 0
0.111511 0.421598 0
0.111547 0.421573 0
0.11162 0.421521 0
0.111585 0.421572 0
0.111545 0.421548 0
0.111547 0.421573 0
0.111551 0.421622 0
0.111511 0.421598 0
0.111585 0.421572 0
0.111547 0.421573 0
0.013381 0.0447849 0
0.0182447 0.0495255 0
0.012884 0.0497601 0
0.0162921 0.0512621 0
0.0231084 0.0542662 0
0.0177477 0.0545008 0
0.0182447 0.0495255 0
0.0162921 0.0512621 0
0.012387 0.0547353 0
0.012884 0.0497601 0
0.0177477 0.0545008 0
0.0162921 0.0512621 0
0.111932 0.421338 0
0.111924 0.421282 0
0.112018 0.42128 0
0.111984 0.421262 0
0.111917 0.421226 0
0.11201 0.421225 0
0.111924 0.421282 0
0.111984 0.421262 0
0.112103 0.421223 0
0.112018 0.42128 0
0.11201 0.421225 0
0.111984 0.421262 0
0.0749443 0.148008 0
0.0739699 0.129375 0
0.10362 0.141326 0
0.0934122 0.131131 0
0.0729955 0.110742 0
0.102646 0.122693 0
0.0739699 0.129375 0
0.0934122 0.131131 0
0.132297 0.134645 0
0.10362 0.141326 0
0.102646 0.122693 0
0.0934122 0.131131 0
0.0119548 0.064726 0
0.0121709 0.0597306 0
0.0169895 0.0644666 0
0.0154554 0.0612229 0
0.012387 0.0547353 0
0.0172057 0.0594713 0
0.0121709 0.0597306 0
0.0154554 0.0612229 0
0.0220243 0.0642073 0
0.0169895 0.0644666 0
0.0172057 0.0594713 0
0.0154554 0.0612229 0
0.111875 0.421505 0
0.111959 0.421488 0
0.111927 0.421542 0
0.111966 0.421518 0
0.112043 0.421471 0
0.112011 0.421525 0
0.111959 0.421488 0
0.111966 0.421518 0
0.111978 0.421579 0
0.111927 0.421542 0
0.112011 0.421525 0
0.111966 0.421518 0
0.111917 0.421226 0
0.11186 0.421288 0
0.111861 0.421223 0
0.111841 0.421265 0
0.111803 0.421349 0
0.111804 0.421285 0
0.11186 0.421288 0
0.111841 0.421265 0
0.111804 0.42122 0
0.111861 0.421223 0
0.111804 0.421285 0
0.111841 0.421265 0
0.11201 0.422009 0
0.111907 0.422037 0
0.111915 0.421983 0
0.111878 0.422011 0
0.111804 0.422065 0
0.111812 0.422011 0
0.111907 0.422037 0
0.111878 0.422011 0
0.111819 0.421957 0
0.111915 0.421983 0
0.111812 0.422011 0
0.111878 0.422011 0
0.111993 0.421144 0
0.111955 0.421185 0
0.111917 0.421092 0
0.111917 0.421137 0
0.111917 0.421226 0
0.111879 0.421133 0
0.111955 0.421185 0
0.111917 0.421137 0
0.111842 0.42104 0
0.111917 0.421092 0
0.111879 0.421133 0
0.111917 0.421137 0
0.0119548 0.064726 0
0.0174486 0.0694456 0
0.0119005 0.0697257 0
0.0155811 0.0712055 0
0.0229423 0.0741651 0
0.0173943 0.0744453 0
0.0174486 0.0694456 0
0.0155811 0.0712055 0
0.0118462 0.0747254 0
0.0119005 0.0697257 0
0.0173943 0.0744453 0
0.0155811 0.0712055 0
0.0118452 0.0747254 0
0.0119056 0.079725 0
0.00592259 0.0842377 0
0.00793707 0.0844 0
0.011966 0.0847247 0
0.00598302 0.0892373 0
0.0119056 0.079725 0
0.00793707 0.0844 0
0 0.09375 0
0.00592259 0.0842377 0
0.00598302 0.0892373 0
0.00793707 0.0844 0
0.111842 0.42104 0
0.111879 0.421133 0
0.111823 0.42113 0
0.111854 0.421162 0
0.111917 0.421226 0
0.111861 0.421223 0
0.111879 0.421133 0
0.111854 0.421162 0
0.111804 0.42122 0
0.111823 0.42113 0
0.111861 0.421223 0
0.111854 0.421162 0
0.111635 0.42174 0
0.11167 0.421674 0
0.111707 0.421742 0
0.111706 0.421698 0
0.111705 0.421609 0
0.111742 0.421677 0
0.11167 0.421674 0
0.111706 0.421698 0
0.111779 0.421745 0
0.111707 0.421742 0
0.111742 0.421677 0
0.111706 0.421698 0
0.111838 0.421844 0
0.111765 0.421861 0
0.111808 0.421794 0
0.11177 0.421822 0
0.111692 0.421878 0
0.111735 0.421812 0
0.111765 0.421861 0
0.11177 0.421822 0
0.111779 0.421745 0
0.111808 0.421794 0
0.111735 0.421812 0
0.11177 0.421822 0
0.112461 0.421602 0
0.112369 0.421565 0
0.112415 0.421532 0
0.112369 0.421531 0
0.112277 0.421528 0
0.112323 0.421495 0
0.112369 0.421565 0
0.112369 0.421531 0
0.11237 0.421461 0
0.112415 0.421532 0
0.112323 0.421495 0
0.112369 0.421531 0
0.0243395 0.0941104 0
0.0182767 0.094416 0
0.0181533 0.0894175 0
0.0161735 0.0911855 0
0.012214 0.0947216 0
0.0120905 0.0897231 0
0.0182767 0.094416 0
0.0161735 0.0911855 0
0.011967 0.0847246 0
0.0181533 0.0894175 0
0.0120905 0.0897231 0
0.0161735 0.0911855 0
0.0133648 0.114688 0
0.00668241 0.119844 0
0.0130627 0.109697 0
0.00870846 0.114798 0
0 0.125 0
0.00638028 0.114853 0
0.00668241 0.119844 0
0.00870846 0.114798 0
0.0127606 0.104707 0
0.0130627 0.109697 0
0.00638028 0.114853 0
0.00870846 0.114798 0
0.0118462 0.0747254 0
0.0173943 0.0744453 0
0.0119066 0.079725 0
0.0155852 0.0778717 0
0.0229423 0.0741651 0
0.0174547 0.0794449 0
0.0173943 0.0744453 0
0.0155852 0.0778717 0
0.011967 0.0847246 0
0.0119066 0.079725 0
0.0174547 0.0794449 0
0.0155852 0.0778717 0
0.0118452 0.0747254 0
0.00592259 0.0842377 0
0.00592259 0.0686127 0
0.00394839 0.0769918 0
0 0.09375 0
0 0.078125 0
0.00592259 0.0842377 0
0.00394839 0.0769918 0
0 0.0625 0
0.00592259 0.0686127 0
0 0.078125 0
0.00394839 0.0769918 0
0.0242479 0.10411 0
0.0185047 0.104408 0
0.018231 0.0994158 0
0.0164078 0.101179 0
0.0127616 0.104707 0
0.0124878 0.0997141 0
0.0185047 0.104408 0
0.0164078 0.101179 0
0.012214 0.0947216 0
0.018231 0.0994158 0
0.0124878 0.0997141 0
0.0164078 0.101179 0
0.011966 0.0847247 0
0.0120895 0.0897231 0
0.00598302 0.0892373 0
0.00805967 0.0910654 0
0.012213 0.0947216 0
0.00610649 0.0942358 0
0.0120895 0.0897231 0
0.00805967 0.0910654 0
0 0.09375 0
0.00598302 0.0892373 0
0.00610649 0.0942358 0
0.00805967 0.0910654 0
0.111698 0.42117 0
0.111614 0.421194 0
0.11166 0.421125 0
0.111617 0.421156 0
0.11153 0.421219 0
0.111576 0.42115 0
0.111614 0.421194 0
0.111617 0.421156 0
0.111623 0.421081 0
0.11166 0.421125 0
0.111576 0.42115 0
0.111617 0.421156 0
0.111446 0.421896 0
0.111443 0.421948 0
0.111382 0.421918 0
0.111401 0.421946 0
0.11144 0.422001 0
0.111379 0.421971 0
0.111443 0.421948 0
0.111401 0.421946 0
0.111318 0.421941 0
0.111382 0.421918 0
0.111379 0.421971 0
0.111401 0.421946 0
0.0231084 0.0542662 0
0.0225663 0.0592367 0
0.0177477 0.0545008 0
0.0191732 0.0577363 0
0.0220243 0.0642073 0
0.0172057 0.0594713 0
0.0225663 0.0592367 0
0.0191732 0.0577363 0
0.012387 0.0547353 0
0.0177477 0.0545008 0
0.0172057 0.0594713 0
0.0191732 0.0577363 0
0.112104 0.421359 0
0.112183 0.421298 0
0.112179 0.421364 0
0.112206 0.421322 0
0.112262 0.421237 0
0.112257 0.421303 0
0.112183 0.421298 0
0.112206 0.421322 0
0.112253 0.421369 0
0.112179 0.421364 0
0.112257 0.421303 0
0.112206 0.421322 0
0.112082 0.421009 0
0.112176 0.420964 0
0.112187 0.421026 0
0.112215 0.42099 0
0.112271 0.420918 0
0.112281 0.42098 0
0.112176 0.420964 0
0.112215 0.42099 0
0.112292 0.421042 0
0.112187 0.421026 0
0.112281 0.42098 0
0.112215 0.42099 0
0.112381 0.421294 0
0.112322 0.421266 0
0.112398 0.421183 0
0.112352 0.421201 0
0.112262 0.421237 0
0.112338 0.421155 0
0.112322 0.421266 0
0.112352 0.421201 0
0.112414 0.421072 0
0.112398 0.421183 0
0.112338 0.421155 0
0.112352 0.421201 0
0.013381 0.0447849 0
0.0188108 0.0445576 0
0.0182447 0.0495255 0
0.0202433 0.0477938 0
0.0242407 0.0443303 0
0.0236745 0.0492982 0
0.0188108 0.0445576 0
0.0202433 0.0477938 0
0.0231084 0.0542662 0
0.0182447 0.0495255 0
0.0236745 0.0492982 0
0.0202433 0.0477938 0
0.0229423 0.0741651 0
0.0174486 0.0694456 0
0.0224833 0.0691862 0
0.0189738 0.0676995 0
0.0119548 0.064726 0
0.0169895 0.0644666 0
0.0174486 0.0694456 0
0.0189738 0.0676995 0
0.0220243 0.0642073 0
0.0224833 0.0691862 0
0.0169895 0.0644666 0
0.0189738 0.0676995 0
0.0153175 0.0349742 0
0.0172554 0.0303651 0
0.0228203 0.0356833 0
0.0216113 0.0323742 0
0.0191934 0.025756 0
0.0247583 0.0310741 0
0.0172554 0.0303651 0
0.0216113 0.0323742 0
0.0303232 0.0363923 0
0.0228203 0.0356833 0
0.0247583 0.0310741 0
0.0216113 0.0323742 0
0.111926 0.421769 0
0.112006 0.421706 0
0.111995 0.421795 0
0.112026 0.421744 0
0.112087 0.421643 0
0.112076 0.421732 0
0.112006 0.421706 0
0.112026 0.421744 0
0.112065 0.42182 0
0.111995 0.421795 0
0.112076 0.421732 0
[...]
POINT_DATA 92388
SCALARS solution double 1
LOOKUP_TABLE default
0 0 1.98686e-05 1.71023e-05 0 1.89016e-05 0 1.71023e-05 0 1.98686e-05 1.89016e-05 1.71023e-05 0 2.84442e-05 0 2.02398e-05 0 1.98686e-05 2.84442e-05 2.02398e-05 0 0 1.98686e-05 2.02398e-05 4.04848e-06 3.88164e-06 4.08778e-06 3.95908e-06 3.70961e-06 3.90641e-06 3.88164e-06 3.95908e-06 4.11407e-06 4.08778e-06 3.90641e-06 3.95908e-06 1.71017e-06 1.63079e-06 1.71839e-06 1.66173e-06 1.5575e-06 1.63683e-06 1.63079e-06 1.66173e-06 1.72045e-06 1.71839e-06 1.63683e-06 1.66173e-06 0 1.2814e-07 1.91204e-07 2.09586e-07 2.44977e-07 3.05669e-07 1.2814e-07 2.09586e-07 3.70485e-07 1.91204e-07 3.05669e-07 2.09586e-07 0 0 1.89016e-05 1.64831e-05 0 1.82296e-05 0 1.64831e-05 0 1.89016e-05 1.82296e-05 1.64831e-05 3.19497e-06 3.38558e-06 3.24637e-06 3.35536e-06 3.58381e-06 3.43133e-06 3.38558e-06 3.35536e-06 3.27809e-06 3.24637e-06 3.43133e-06 3.35536e-06 0 3.44602e-05 0 3.43507e-05 0 4.2125e-05 3.44602e-05 3.43507e-05 0 0 4.2125e-05 3.43507e-05 0 1.55782e-05 1.83756e-05 1.45353e-05 0 0 1.55782e-05 1.45353e-05 0 1.83756e-05 0 1.45353e-05 2.58511e-06 2.54111e-06 2.48012e-06 2.48662e-06 2.47936e-06 2.4347e-06 2.54111e-06 2.48662e-06 2.37998e-06 2.48012e-06 2.4347e-06 2.48662e-06 0 1.45251e-05 0 1.2658e-05 0 1.39913e-05 1.45251e-05 1.2658e-05 0 0 1.39913e-05 1.2658e-05 2.15048e-06 2.22275e-06 2.0132e-06 2.10411e-06 2.29643e-06 2.07359e-06 2.22275e-06 2.10411e-06 1.85641e-06 2.0132e-06 2.07359e-06 2.10411e-06 0.00227747 0.00220483 0.00404492 0.00344308 0.00204812 0.00385865 0.00220483 0.00344308 0.0051134 0.00404492 0.00385865 0.00344308 0 0 1.33902e-05 1.17448e-05 0 1.34594e-05 0 1.17448e-05 0 1.33902e-05 1.34594e-05 1.17448e-05 2.07528e-06 1.9461e-06 1.94665e-06 1.90533e-06 1.81059e-06 1.82234e-06 1.9461e-06 1.90533e-06 1.82697e-06 1.94665e-06 1.82234e-06 1.90533e-06 2.29643e-06 2.36304e-06 2.4364e-06 2.43289e-06 2.41168e-06 2.49624e-06 2.36304e-06 2.43289e-06 2.57921e-06 2.4364e-06 2.49624e-06 2.43289e-06 1.41542e-06 1.46465e-06 1.50889e-06 1.509e-06 1.49684e-06 1.55057e-06 1.46465e-06 1.509e-06 1.60577e-06 1.50889e-06 1.55057e-06 1.509e-06 2.17793e-06 2.24077e-06 2.42131e-06 2.38096e-06 2.29643e-06 2.48533e-06 2.24077e-06 2.38096e-06 2.68806e-06 2.42131e-06 2.48533e-06 2.38096e-06 0 1.41645e-05 0 1.31372e-05 0 1.53522e-05 1.41645e-05 1.31372e-05 0 0 1.53522e-05 1.31372e-05 0 0 1.79783e-05 1.60831e-05 0 1.83204e-05 0 1.60831e-05 0 1.79783e-05 1.83204e-05 1.60831e-05 2.68806e-06 2.48533e-06 2.64062e-06 2.52065e-06 2.29643e-06 2.4364e-06 2.48533e-06 2.52065e-06 2.57921e-06 2.64062e-06 2.4364e-06 2.52065e-06 2.06891e-06 2.13964e-06 1.98953e-06 2.05835e-06 2.19951e-06 2.04608e-06 2.13964e-06 2.05835e-06 1.90646e-06 1.98953e-06 2.04608e-06 2.05835e-06 1.72045e-06 1.76536e-06 1.80965e-06 1.81203e-06 1.8007e-06 1.85904e-06 1.76536e-06 1.81203e-06 1.90646e-06 1.80965e-06 1.85904e-06 1.81203e-06 1.05391e-06 1.20544e-06 1.13509e-06 1.21236e-06 1.36795e-06 1.29927e-06 1.20544e-06 1.21236e-06 1.22541e-06 1.13509e-06 1.29927e-06 1.21236e-06 0 1.7822e-05 1.78353e-05 1.59475e-05 0 0 1.7822e-05 1.59475e-05 0 1.78353e-05 0 1.59475e-05 0 2.42069e-05 0 2.06805e-05 0 2.26643e-05 2.42069e-05 2.06805e-05 0 0 2.26643e-05 2.06805e-05 0 1.53522e-05 0 1.41424e-05 0 1.64486e-05 1.53522e-05 1.41424e-05 0 0 1.64486e-05 1.41424e-05 0 1.79783e-05 1.78626e-05 1.57224e-05 0 0 1.79783e-05 1.57224e-05 0 1.78626e-05 0 1.57224e-05 0 1.64209e-05 1.72735e-05 1.49863e-05 0 0 1.64209e-05 1.49863e-05 0 1.72735e-05 0 1.49863e-05 0 0 1.83204e-05 1.64757e-05 0 1.88033e-05 0 1.64757e-05 0 1.83204e-05 1.88033e-05 1.64757e-05 2.92375e-06 3.10599e-06 3.09866e-06 3.16707e-06 3.27809e-06 3.29271e-06 3.10599e-06 3.16707e-06 3.28282e-06 3.09866e-06 3.29271e-06 3.16707e-06 1.89864e-06 1.79678e-06 1.86389e-06 1.8061e-06 1.69908e-06 1.75617e-06 1.79678e-06 1.8061e-06 1.81307e-06 1.86389e-06 1.75617e-06 1.8061e-06 0 0 1.39913e-05 1.22678e-05 0 1.34594e-05 0 1.22678e-05 0 1.39913e-05 1.34594e-05 1.22678e-05 1.77325e-06 1.64018e-06 1.61942e-06 1.58127e-06 1.49002e-06 1.4814e-06 1.64018e-06 1.58127e-06 1.46963e-06 1.61942e-06 1.4814e-06 1.58127e-06 2.02204e-06 1.76983e-06 1.72683e-06 1.65785e-06 1.5056e-06 1.47714e-06 1.76983e-06 1.65785e-06 1.44795e-06 1.72683e-06 1.47714e-06 1.65785e-06 1.22505e-06 1.35387e-06 1.19106e-06 1.29291e-06 1.49002e-06 1.3283e-06 1.35387e-06 1.29291e-06 1.14192e-06 1.19106e-06 1.3283e-06 1.29291e-06 0 1.55782e-05 1.45251e-05 1.32559e-05 0 0 1.55782e-05 1.32559e-05 0 1.45251e-05 0 1.32559e-05 0 1.41645e-05 0 1.21254e-05 0 1.33902e-05 1.41645e-05 1.21254e-05 0 0 1.33902e-05 1.21254e-05 0 0 2.2963e-05 2.15611e-05 0 2.60522e-05 0 2.15611e-05 0 2.2963e-05 2.60522e-05 2.15611e-05 1.71017e-06 1.66963e-06 1.60519e-06 1.61195e-06 1.60813e-06 1.55769e-06 1.66963e-06 1.61195e-06 1.50544e-06 1.60519e-06 1.55769e-06 1.61195e-06 1.49002e-06 1.5805e-06 1.47433e-06 1.54094e-06 1.67778e-06 1.56633e-06 1.5805e-06 1.54094e-06 1.44795e-06 1.47433e-06 1.56633e-06 1.54094e-06 2.02204e-06 1.84298e-06 2.10718e-06 1.95887e-06 1.67778e-06 1.92629e-06 1.84298e-06 1.95887e-06 2.17793e-06 2.10718e-06 1.92629e-06 1.95887e-06 0 0 6.73246e-05 5.01999e-05 0 6.81179e-05 0 5.01999e-05 9.38647e-05 6.73246e-05 6.81179e-05 5.01999e-05 3.70961e-06 3.88164e-06 3.65312e-06 3.78158e-06 4.04848e-06 3.80941e-06 3.88164e-06 3.78158e-06 3.58381e-06 3.65312e-06 3.80941e-06 3.78158e-06 2.19951e-06 2.33387e-06 2.20861e-06 2.29557e-06 2.47936e-06 2.34491e-06 2.33387e-06 2.29557e-06 2.21102e-06 2.20861e-06 2.34491e-06 2.29557e-06 9.38647e-05 6.54019e-05 8.31644e-05 6.81219e-05 0 2.85846e-05 6.54019e-05 6.81219e-05 0 8.31644e-05 2.85846e-05 6.81219e-05 1.94479e-06 1.88987e-06 1.82193e-06 1.82847e-06 1.82697e-06 1.77267e-06 1.88987e-06 1.82847e-06 1.71017e-06 1.82193e-06 1.77267e-06 1.82847e-06 3.58381e-06 3.61377e-06 3.43133e-06 3.49886e-06 3.63231e-06 3.45114e-06 3.61377e-06 3.49886e-06 3.27809e-06 3.43133e-06 3.45114e-06 3.49886e-06 0 1.78353e-05 0 1.5692e-05 0 1.73599e-05 1.78353e-05 1.5692e-05 0 0 1.73599e-05 1.5692e-05 1.41542e-06 1.40714e-06 1.46465e-06 1.43802e-06 1.38368e-06 1.43756e-06 1.40714e-06 1.43802e-06 1.49684e-06 1.46465e-06 1.43756e-06 1.43802e-06 0 6.73246e-05 0 5.11735e-05 9.38647e-05 6.92812e-05 6.73246e-05 5.11735e-05 0 0 6.92812e-05 5.11735e-05 0 1.64486e-05 1.73599e-05 1.50996e-05 0 0 1.64486e-05 1.50996e-05 0 1.73599e-05 0 1.50996e-05 1.21784e-06 1.28615e-06 1.31335e-06 1.32627e-06 1.34443e-06 1.37798e-06 1.28615e-06 1.32627e-06 1.41239e-06 1.31335e-06 1.37798e-06 1.32627e-06 0 6.81686e-05 7.24464e-05 6.23995e-05 0 0 6.81686e-05 6.23995e-05 0 7.24464e-05 0 6.23995e-05 2.15048e-06 2.11944e-06 2.28135e-06 2.21259e-06 2.07528e-06 2.23638e-06 2.11944e-06 2.21259e-06 2.41168e-06 2.28135e-06 2.23638e-06 2.21259e-06 0 1.7822e-05 1.72735e-05 1.56936e-05 0 0 1.7822e-05 1.56936e-05 0 1.72735e-05 0 1.56936e-05 2.81408e-06 2.75532e-06 2.64078e-06 2.66141e-06 2.69206e-06 2.58819e-06 2.75532e-06 2.66141e-06 2.47936e-06 2.64078e-06 2.58819e-06 2.66141e-06 0 1.64209e-05 1.54143e-05 1.41818e-05 0 0 1.64209e-05 1.41818e-05 0 1.54143e-05 0 1.41818e-05 0 0 6.05827e-05 5.38669e-05 0 6.13999e-05 0 5.38669e-05 0 6.05827e-05 6.13999e-05 5.38669e-05 1.82697e-06 1.71399e-06 1.77267e-06 1.72016e-06 1.60813e-06 1.66963e-06 1.71399e-06 1.72016e-06 1.71017e-06 1.77267e-06 1.66963e-06 1.72016e-06 0 8.28347e-05 0 7.12465e-05 0 7.73171e-05 8.28347e-05 7.12465e-05 0 0 7.73171e-05 7.12465e-05 1.05391e-06 1.14597e-06 1.1936e-06 1.20472e-06 1.21784e-06 1.27034e-06 1.14597e-06 1.20472e-06 1.32717e-06 1.1936e-06 1.27034e-06 1.20472e-06 0 6.28086e-05 6.50218e-05 5.65624e-05 0 0 6.28086e-05 5.65624e-05 0 6.50218e-05 0 5.65624e-05 0 0 2.2963e-05 1.89176e-05 0 1.83756e-05 0 1.89176e-05 0 2.2963e-05 1.83756e-05 1.89176e-05 6.72669e-05 5.1282e-05 3.58008e-05 4.17923e-05 0 0 5.1282e-05 4.17923e-05 0 3.58008e-05 0 4.17923e-05 2.15048e-06 2.0132e-06 1.95855e-06 1.93011e-06 1.85641e-06 1.81593e-06 2.0132e-06 1.93011e-06 1.77325e-06 1.95855e-06 1.81593e-06 1.93011e-06 1.85641e-06 2.01141e-06 1.77183e-06 1.9029e-06 2.17793e-06 1.92629e-06 2.01141e-06 1.9029e-06 1.67778e-06 1.77183e-06 1.92629e-06 1.9029e-06 2.69206e-06 2.55396e-06 2.56567e-06 2.5186e-06 2.41168e-06 2.43459e-06 2.55396e-06 2.5186e-06 2.44607e-06 2.56567e-06 2.43459e-06 2.5186e-06 0 0 3.75835e-05 3.14924e-05 0 3.35041e-05 0 3.14924e-05 0 3.75835e-05 3.35041e-05 3.14924e-05 1.74674e-06 1.87143e-06 1.78027e-06 1.85214e-06 2.00968e-06 1.90436e-06 1.87143e-06 1.85214e-06 1.8007e-06 1.78027e-06 1.90436e-06 1.85214e-06 0 0 1.36098e-05 1.24603e-05 0 1.44817e-05 0 1.24603e-05 0 1.36098e-05 1.44817e-05 1.24603e-05 0 2.42069e-05 2.59959e-05 2.23139e-05 0 0 2.42069e-05 2.23139e-05 0 2.59959e-05 0 2.23139e-05 1.5575e-06 1.53526e-06 1.4827e-06 1.49344e-06 1.50544e-06 1.46213e-06 1.53526e-06 1.49344e-06 1.41542e-06 1.4827e-06 1.46213e-06 1.49344e-06 0 1.24258e-05 1.29238e-05 1.12333e-05 0 0 1.24258e-05 1.12333e-05 0 1.29238e-05 0 1.12333e-05 0 4.78804e-05 5.0928e-05 4.38914e-05 0 0 4.78804e-05 4.38914e-05 0 5.0928e-05 0 4.38914e-05 1.94479e-06 2.07216e-06 2.01041e-06 2.07538e-06 2.21102e-06 2.14454e-06 2.07216e-06 2.07538e-06 2.07528e-06 2.01041e-06 2.14454e-06 2.07538e-06 0 0 1.25014e-05 1.11253e-05 0 1.24732e-05 0 1.11253e-05 0 1.25014e-05 1.24732e-05 1.11253e-05 1.89864e-06 1.99315e-06 1.95779e-06 2.00296e-06 2.09511e-06 2.05658e-06 1.99315e-06 2.00296e-06 2.00968e-06 1.95779e-06 2.05658e-06 2.00296e-06 0 1.22904e-05 1.21941e-05 1.08142e-05 0 0 1.22904e-05 1.08142e-05 0 1.21941e-05 0 1.08142e-05 1.40652e-06 1.38933e-06 1.5441e-06 1.49127e-06 1.35877e-06 1.53734e-06 1.38933e-06 1.49127e-06 1.69386e-06 1.5441e-06 1.53734e-06 1.49127e-06 1.0662e-06 1.36596e-06 1.06007e-06 1.25183e-06 1.62011e-06 1.32686e-06 1.36596e-06 1.25183e-06 1.05092e-06 1.06007e-06 1.32686e-06 1.25183e-06 3.15096e-06 3.04101e-06 2.97203e-06 2.96251e-06 2.92532e-06 2.87259e-06 3.04101e-06 2.96251e-06 2.80535e-06 2.97203e-06 2.87259e-06 2.96251e-06 0 0 4.78804e-05 4.04847e-05 0 4.33202e-05 0 4.04847e-05 0 4.78804e-05 4.33202e-05 4.04847e-05 2.99001e-06 3.13127e-06 2.90494e-06 3.02425e-06 3.27809e-06 3.0397e-06 3.13127e-06 3.02425e-06 2.81687e-06 2.90494e-06 3.0397e-06 3.02425e-06 2.58511e-06 2.75088e-06 2.70494e-06 2.77978e-06 2.92532e-06 2.88377e-06 2.75088e-06 2.77978e-06 2.82899e-06 2.70494e-06 2.88377e-06 2.77978e-06 0 0 5.55878e-05 5.06397e-05 0 5.87121e-05 0 5.06397e-05 0 5.55878e-05 5.87121e-05 5.06397e-05 3.32889e-06 3.27124e-06 3.06798e-06 3.11635e-06 3.19497e-06 3.01089e-06 3.27124e-06 3.11635e-06 2.82899e-06 3.06798e-06 3.01089e-06 3.11635e-06 0 1.26471e-05 0 1.12754e-05 0 1.2728e-05 1.26471e-05 1.12754e-05 0 0 1.2728e-05 1.12754e-05 3.70961e-06 3.44368e-06 3.51806e-06 3.411e-06 3.19497e-06 3.27124e-06 3.44368e-06 3.411e-06 3.32889e-06 3.51806e-06 3.27124e-06 3.411e-06 2.92532e-06 3.12359e-06 2.88377e-06 3.02433e-06 3.32889e-06 3.06798e-06 3.12359e-06 3.02433e-06 2.82899e-06 2.88377e-06 3.06798e-06 3.02433e-06 3.70961e-06 3.65312e-06 3.44368e-06 3.49337e-06 3.58381e-06 3.38558e-06 3.65312e-06 3.49337e-06 3.19497e-06 3.44368e-06 3.38558e-06 3.49337e-06 0 0 3.11937e-05 2.62378e-05 0 2.78845e-05 0 2.62378e-05 0 3.11937e-05 2.78845e-05 2.62378e-05 0 0 1.35602e-05 1.17606e-05 0 1.30244e-05 0 1.17606e-05 0 1.35602e-05 1.30244e-05 1.17606e-05 3.63231e-06 3.46347e-06 3.45114e-06 3.40423e-06 3.28282e-06 3.29271e-06 3.46347e-06 3.40423e-06 3.27809e-06 3.45114e-06 3.29271e-06 3.40423e-06 0 1.25945e-05 1.25212e-05 1.11579e-05 0 0 1.25945e-05 1.11579e-05 0 1.25212e-05 0 1.11579e-05 0.000105216 8.93387e-05 8.7575e-05 6.73897e-05 0 0 8.93387e-05 6.73897e-05 0 8.7575e-05 0 6.73897e-05 2.07528e-06 2.25376e-06 2.23638e-06 2.30749e-06 2.44607e-06 2.43459e-06 2.25376e-06 2.30749e-06 2.41168e-06 2.23638e-06 2.43459e-06 2.30749e-06 0 4.05502e-05 0 3.47888e-05 0 3.75835e-05 4.05502e-05 3.47888e-05 0 0 3.75835e-05 3.47888e-05 2.35063e-06 2.51842e-06 2.47037e-06 2.54799e-06 2.68806e-06 2.65172e-06 2.51842e-06 2.54799e-06 2.59041e-06 2.47037e-06 2.65172e-06 2.54799e-06 0 0 1.44817e-05 1.32588e-05 0 1.54143e-05 0 1.32588e-05 0 1.44817e-05 1.54143e-05 1.32588e-05 2.41168e-06 2.36304e-06 2.28135e-06 2.28997e-06 2.29643e-06 2.22275e-06 2.36304e-06 2.28997e-06 2.15048e-06 2.28135e-06 2.22275e-06 2.28997e-06 2.82899e-06 3.01089e-06 2.8297e-06 2.94659e-06 3.19497e-06 2.99852e-06 3.01089e-06 2.94659e-06 2.81408e-06 2.8297e-06 2.99852e-06 2.94659e-06 0 5.99946e-05 0 5.27992e-05 0 5.94695e-05 5.99946e-05 5.27992e-05 0 0 5.94695e-05 5.27992e-05 0 1.21941e-05 0 1.08965e-05 0 1.24258e-05 1.21941e-05 1.08965e-05 0 0 1.24258e-05 1.08965e-05 1.81059e-06 1.69014e-06 1.7049e-06 1.66421e-06 1.57241e-06 1.59674e-06 1.69014e-06 1.66421e-06 1.60813e-06 1.7049e-06 1.59674e-06 1.66421e-06 1.41542e-06 1.38995e-06 1.33348e-06 1.33981e-06 1.34443e-06 1.29159e-06 1.38995e-06 1.33981e-06 1.24356e-06 1.33348e-06 1.29159e-06 1.33981e-06 2.44607e-06 2.25376e-06 2.32473e-06 2.2399e-06 2.07528e-06 2.14454e-06 2.25376e-06 2.2399e-06 2.21102e-06 2.32473e-06 2.14454e-06 2.2399e-06 1.60813e-06 1.59674e-06 1.46784e-06 1.5023e-06 1.57241e-06 1.4416e-06 1.59674e-06 1.5023e-06 1.32717e-06 1.46784e-06 1.4416e-06 1.5023e-06 0 5.5641e-05 5.69222e-05 4.9879e-05 0 0 5.5641e-05 4.9879e-05 0 5.69222e-05 0 4.9879e-05 2.57921e-06 2.70366e-06 2.74713e-06 2.77537e-06 2.81687e-06 2.8739e-06 2.70366e-06 2.77537e-06 2.92375e-06 2.74713e-06 2.8739e-06 2.77537e-06 0 5.88593e-05 0 5.17841e-05 0 5.80361e-05 5.88593e-05 5.17841e-05 0 0 5.80361e-05 5.17841e-05 0 1.25212e-05 0 1.11018e-05 0 1.25014e-05 1.25212e-05 1.11018e-05 0 0 1.25014e-05 1.11018e-05 0 5.43634e-05 0 4.77541e-05 0 5.31783e-05 5.43634e-05 4.77541e-05 0 0 5.31783e-05 4.77541e-05 0 1.24732e-05 0 1.10509e-05 0 1.22904e-05 1.24732e-05 1.10509e-05 0 0 1.22904e-05 1.10509e-05 3.32889e-06 3.259e-06 3.51842e-06 3.40217e-06 3.15096e-06 3.42472e-06 3.259e-06 3.40217e-06 3.71252e-06 3.51842e-06 3.42472e-06 3.40217e-06 2.81408e-06 2.90314e-06 2.75532e-06 2.8316e-06 2.99001e-06 2.83672e-06 2.90314e-06 2.8316e-06 2.69206e-06 2.75532e-06 2.83672e-06 2.8316e-06 3.70961e-06 3.72924e-06 3.90641e-06 3.85696e-06 3.71252e-06 3.92705e-06 3.72924e-06 3.85696e-06 4.11407e-06 3.90641e-06 3.92705e-06 3.85696e-06 4.01852e-06 3.8211e-06 3.79994e-06 3.745e-06 3.63231e-06 3.61377e-06 3.8211e-06 3.745e-06 3.58381e-06 3.79994e-06 3.61377e-06 3.745e-06 0 1.63581e-05 0 1.42391e-05 0 1.52561e-05 1.63581e-05 1.42391e-05 0 0 1.52561e-05 1.42391e-05 0 6.24947e-05 6.58411e-05 5.82148e-05 0 0 6.24947e-05 5.82148e-05 0 6.58411e-05 0 5.82148e-05 4.42125e-06 4.33568e-06 4.21632e-06 4.23044e-06 4.24295e-06 4.13696e-06 4.33568e-06 4.23044e-06 4.01852e-06 4.21632e-06 4.13696e-06 4.23044e-06 0 9.21243e-05 0 7.92366e-05 0 8.7796e-05 9.21243e-05 7.92366e-05 0 0 8.7796e-05 7.92366e-05 3.46448e-06 3.33878e-06 3.69398e-06 3.52944e-06 3.1982e-06 3.55971e-06 3.33878e-06 3.52944e-06 3.94415e-06 3.69398e-06 3.55971e-06 3.52944e-06 3.71252e-06 4.04735e-06 3.92705e-06 4.07766e-06 4.39711e-06 4.2557e-06 4.04735e-06 4.07766e-06 4.11407e-06 3.92705e-06 4.2557e-06 4.07766e-06 0 0 1.66559e-05 1.38605e-05 0 1.51235e-05 0 1.38605e-05 0 1.66559e-05 1.51235e-05 1.38605e-05 4.11407e-06 4.46634e-06 4.08778e-06 4.32339e-06 4.82305e-06 4.42041e-06 4.46634e-06 4.32339e-06 4.04848e-06 4.08778e-06 4.42041e-06 4.32339e-06 0 0 1.56273e-05 1.29853e-05 0 1.42037e-05 0 1.29853e-05 0 1.56273e-05 1.42037e-05 1.29853e-05 0 1.38461e-05 0 1.23262e-05 0 1.37148e-05 1.38461e-05 1.23262e-05 0 0 1.37148e-05 1.23262e-05 0 0 1.25945e-05 1.1224e-05 0 1.26471e-05 0 1.1224e-05 0 1.25945e-05 1.26471e-05 1.1224e-05 0 0 8.7575e-05 7.0122e-05 0 9.59853e-05 0 7.0122e-05 0.000105216 8.7575e-05 9.59853e-05 7.0122e-05 1.81059e-06 1.97259e-06 1.79571e-06 1.90826e-06 2.15048e-06 1.95855e-06 1.97259e-06 1.90826e-06 1.77325e-06 1.79571e-06 1.95855e-06 1.90826e-06 0 1.36098e-05 1.29238e-05 1.17746e-05 0 0 1.36098e-05 1.17746e-05 0 1.29238e-05 0 1.17746e-05 1.90646e-06 1.93021e-06 1.80729e-06 1.85295e-06 1.94479e-06 1.82193e-06 1.93021e-06 1.85295e-06 1.71017e-06 1.80729e-06 1.82193e-06 1.85295e-06 0 0 8.0524e-05 6.32859e-05 0 6.58411e-05 0 6.32859e-05 0 8.0524e-05 6.58411e-05 6.32859e-05 0 2.60522e-05 2.69148e-05 2.28505e-05 0 0 2.60522e-05 2.28505e-05 0 2.69148e-05 0 2.28505e-05 0 9.11831e-05 7.93571e-05 9.14584e-05 0 6.03406e-05 9.11831e-05 9.14584e-05 9.68597e-05 7.93571e-05 6.03406e-05 9.14584e-05 2.99001e-06 3.09642e-06 3.13127e-06 3.15911e-06 3.19497e-06 3.24637e-06 3.09642e-06 3.15911e-06 3.27809e-06 3.13127e-06 3.24637e-06 3.15911e-06 0 2.46303e-05 0 2.27905e-05 0 2.69148e-05 2.46303e-05 2.27905e-05 0 0 2.69148e-05 2.27905e-05 0 2.85846e-05 0 1.75608e-05 0 0 2.85846e-05 1.75608e-05 0 0 0 1.75608e-05 2.81408e-06 2.64078e-06 2.8297e-06 2.70724e-06 2.47936e-06 2.65167e-06 2.64078e-06 2.70724e-06 2.82899e-06 2.8297e-06 2.65167e-06 2.70724e-06 0 2.46303e-05 0 1.96177e-05 0 1.63058e-05 2.46303e-05 1.96177e-05 0 0 1.63058e-05 1.96177e-05 3.08123e-06 2.88084e-06 3.10566e-06 2.96104e-06 2.68806e-06 2.89796e-06 2.88084e-06 2.96104e-06 3.11844e-06 3.10566e-06 2.89796e-06 2.96104e-06 1.32717e-06 1.27034e-06 1.37405e-06 1.31924e-06 1.21784e-06 1.31335e-06 1.27034e-06 1.31924e-06 1.41239e-06 1.37405e-06 1.31335e-06 1.31924e-06 2.07528e-06 2.11944e-06 1.9461e-06 2.01303e-06 2.15048e-06 1.97259e-06 2.11944e-06 2.01303e-06 1.81059e-06 1.9461e-06 1.97259e-06 2.01303e-06 1.85641e-06 2.07359e-06 2.01141e-06 2.10795e-06 2.29643e-06 2.24077e-06 2.07359e-06 2.10795e-06 2.17793e-06 2.01141e-06 2.24077e-06 2.10795e-06 2.02204e-06 2.18567e-06 2.06739e-06 2.16679e-06 2.35063e-06 2.24277e-06 2.18567e-06 2.16679e-06 2.10779e-06 2.06739e-06 2.24277e-06 2.16679e-06 0 7.32209e-05 7.07096e-05 8.4127e-05 9.38647e-05 8.31644e-05 7.32209e-05 8.4127e-05 0 7.07096e-05 8.31644e-05 8.4127e-05 0 0 0 1.02732e-05 0 1.63058e-05 0 1.02732e-05 0 0 1.63058e-05 1.02732e-05 0.000100494 8.71186e-05 7.41655e-05 9.00252e-05 0 7.74808e-05 8.71186e-05 9.00252e-05 0 7.41655e-05 7.74808e-05 9.00252e-05 9.38647e-05 7.1669e-05 6.92812e-05 8.78031e-05 0 8.28347e-05 7.1669e-05 8.78031e-05 0 6.92812e-05 8.28347e-05 8.78031e-05 2.4481e-05 2.53213e-05 2.53574e-05 2.56233e-05 2.61497e-05 2.61886e-05 2.53213e-05 2.56233e-05 2.62291e-05 2.53574e-05 2.61886e-05 2.56233e-05 2.28185e-05 2.34563e-05 2.36559e-05 2.37988e-05 2.40833e-05 2.42808e-05 2.34563e-05 2.37988e-05 2.4481e-05 2.36559e-05 2.42808e-05 2.37988e-05 2.58244e-05 2.49621e-05 2.47998e-05 2.45622e-05 2.40833e-05 2.39213e-05 2.49621e-05 2.45622e-05 2.37658e-05 2.47998e-05 2.39213e-05 2.45622e-05 2.61497e-05 2.53213e-05 2.512e-05 2.49083e-05 2.4481e-05 2.42808e-05 2.53213e-05 2.49083e-05 2.40833e-05 2.512e-05 2.42808e-05 2.49083e-05 0 0.000590091 0 0.000406805 0.00113529 0.000606613 0.000590091 0.000406805 0 0 0.000606613 0.000406805 0 5.99946e-05 0 5.39034e-05 0 6.05827e-05 5.99946e-05 5.39034e-05 0 0 6.05827e-05 5.39034e-05 2.0513e-05 1.93884e-05 2.03108e-05 1.96328e-05 1.82631e-05 1.91985e-05 1.93884e-05 1.96328e-05 2.01173e-05 2.03108e-05 1.91985e-05 1.96328e-05 0 7.24464e-05 0 6.64069e-05 0 7.73171e-05 7.24464e-05 6.64069e-05 0 0 7.73171e-05 6.64069e-05 3.23438e-05 3.25513e-05 3.14071e-05 3.18612e-05 3.2761e-05 3.16185e-05 3.25513e-05 3.18612e-05 3.04506e-05 3.14071e-05 3.16185e-05 3.18612e-05 1.71336e-05 1.76934e-05 1.66999e-05 1.72217e-05 1.82631e-05 1.72702e-05 1.76934e-05 1.72217e-05 1.62592e-05 1.66999e-05 1.72702e-05 1.72217e-05 0.0012753 0.000644001 0.00148021 0.00100414 0 0.000856833 0.000644001 0.00100414 0.00162093 0.00148021 0.000856833 0.00100414 2.82167e-05 2.90998e-05 2.78438e-05 2.85623e-05 2.99757e-05 2.87367e-05 2.90998e-05 2.85623e-05 2.7468e-05 2.78438e-05 2.87367e-05 2.85623e-05 0 0.000606613 0.0010949 0.00111411 0.00113529 0.00160069 0.000606613 0.00111411 0.00204812 0.0010949 0.00160069 0.00111411 0 6.50218e-05 0 5.90026e-05 0 6.81686e-05 6.50218e-05 5.90026e-05 0 0 6.81686e-05 5.90026e-05 0 6.28086e-05 6.13999e-05 5.52401e-05 0 0 6.28086e-05 5.52401e-05 0 6.13999e-05 0 5.52401e-05 1.56708e-05 1.74662e-05 1.67467e-05 1.75871e-05 1.92309e-05 1.85422e-05 1.74662e-05 1.75871e-05 1.78364e-05 1.67467e-05 1.85422e-05 1.75871e-05 0 0 6.02787e-05 5.5752