# vtk DataFile Version 3.0
#This file was generated by the deal.II library on 2019/3/29 at 19:24:00
ASCII
DATASET UNSTRUCTURED_GRID

POINTS 47748 double
0.508734 0.259231 0
0.508391 0.259136 0
0.508724 0.259024 0
0.508499 0.25903 0
0.508047 0.259041 0
0.508381 0.258929 0
0.508391 0.259136 0
0.508499 0.25903 0
0.508714 0.258817 0
0.508724 0.259024 0
0.508381 0.258929 0
0.508499 0.25903 0
0.048349 0.095973 0
0.048672 0.100966 0
0.0414607 0.103544 0
0.0439721 0.104349 0
0.0489949 0.105959 0
0.0417836 0.108537 0
0.048672 0.100966 0
0.0439721 0.104349 0
0.0345724 0.111114 0
0.0414607 0.103544 0
0.0417836 0.108537 0
0.0439721 0.104349 0
0.510767 0.255527 0
0.510482 0.256066 0
0.510353 0.255785 0
0.510301 0.256058 0
0.510197 0.256604 0
0.510068 0.256323 0
0.510482 0.256066 0
0.510301 0.256058 0
0.50994 0.256042 0
0.510353 0.255785 0
0.510068 0.256323 0
0.510301 0.256058 0
0.0345724 0.111114 0
0.0417836 0.108537 0
0.0418377 0.113535 0
0.0442234 0.11101 0
0.0489949 0.105959 0
0.0490489 0.110958 0
0.0417836 0.108537 0
0.0442234 0.11101 0
0.0491029 0.115956 0
0.0418377 0.113535 0
0.0490489 0.110958 0
0.0442234 0.11101 0
0.508993 0.255328 0
0.509236 0.255131 0
0.509198 0.2555 0
0.509292 0.255311 0
0.509479 0.254934 0
0.509441 0.255302 0
0.509236 0.255131 0
0.509292 0.255311 0
0.509404 0.255671 0
0.509198 0.2555 0
0.509441 0.255302 0
0.509292 0.255311 0
0.0515479 0.0661561 0
0.0507412 0.0710939 0
0.0442361 0.0674963 0
0.0461356 0.0703415 0
0.0499345 0.0760318 0
0.0434294 0.0724342 0
0.0507412 0.0710939 0
0.0461356 0.0703415 0
0.0369243 0.0688366 0
0.0442361 0.0674963 0
0.0434294 0.0724342 0
0.0461356 0.0703415 0
0.075635 0.0992266 0
0.0700388 0.105007 0
0.0691687 0.0956484 0
0.0675934 0.100695 0
0.0644426 0.110788 0
0.0635726 0.101429 0
0.0700388 0.105007 0
0.0675934 0.100695 0
0.0627025 0.0920702 0
0.0691687 0.0956484 0
0.0635726 0.101429 0
0.0675934 0.100695 0
0.509404 0.255671 0
0.509441 0.255302 0
0.509642 0.255549 0
0.509587 0.255344 0
0.509479 0.254934 0
0.509679 0.255181 0
0.509441 0.255302 0
0.509587 0.255344 0
0.50988 0.255428 0
0.509642 0.255549 0
0.509679 0.255181 0
0.509587 0.255344 0
0.048349 0.095973 0
0.0370247 0.0925881 0
0.0487353 0.0909879 0
0.0410569 0.090393 0
0.0257003 0.0892033 0
0.0374109 0.087603 0
0.0370247 0.0925881 0
0.0410569 0.090393 0
0.0491215 0.0860027 0
0.0487353 0.0909879 0
0.0374109 0.087603 0
0.0410569 0.090393 0
0.0627025 0.0920702 0
0.0555756 0.0940255 0
0.0559618 0.0890405 0
0.0534575 0.0913539 0
0.0484488 0.0959808 0
0.048835 0.0909958 0
0.0555756 0.0940255 0
0.0534575 0.0913539 0
0.0492212 0.0860108 0
0.0559618 0.0890405 0
0.048835 0.0909958 0
0.0534575 0.0913539 0
0.51097 0.258011 0
0.510505 0.257605 0
0.511257 0.257644 0
0.510851 0.257496 0
0.51004 0.257199 0
0.510792 0.257238 0
0.510505 0.257605 0
0.510851 0.257496 0
0.511543 0.257277 0
0.511257 0.257644 0
0.510792 0.257238 0
0.510851 0.257496 0
0.50988 0.255428 0
0.509922 0.254984 0
0.510323 0.255478 0
0.510204 0.255165 0
0.509965 0.254539 0
0.510366 0.255033 0
0.509922 0.254984 0
0.510204 0.255165 0
0.510767 0.255527 0
0.510323 0.255478 0
0.510366 0.255033 0
0.510204 0.255165 0
0.51004 0.257199 0
0.510118 0.256902 0
0.510792 0.257238 0
0.510593 0.257027 0
0.510197 0.256604 0
0.51087 0.256941 0
0.510118 0.256902 0
0.510593 0.257027 0
0.511543 0.257277 0
0.510792 0.257238 0
0.51087 0.256941 0
0.510593 0.257027 0
0.727537 0.254609 0
0.71853 0.24276 0
0.752074 0.226608 0
0.73789 0.228042 0
0.709522 0.230911 0
0.743066 0.214759 0
0.71853 0.24276 0
0.73789 0.228042 0
0.77661 0.198608 0
0.752074 0.226608 0
0.743066 0.214759 0
0.73789 0.228042 0
0.509965 0.254539 0
0.509922 0.254984 0
0.509722 0.254737 0
0.509774 0.254967 0
0.50988 0.255428 0
0.509679 0.255181 0
0.509922 0.254984 0
0.509774 0.254967 0
0.509479 0.254934 0
0.509722 0.254737 0
0.509679 0.255181 0
0.509774 0.254967 0
0.50994 0.256042 0
0.509642 0.256123 0
0.509672 0.255857 0
0.509562 0.255972 0
0.509344 0.256203 0
0.509374 0.255937 0
0.509642 0.256123 0
0.509562 0.255972 0
0.509404 0.255671 0
0.509672 0.255857 0
0.509374 0.255937 0
0.509562 0.255972 0
0.0484488 0.0959808 0
0.0555756 0.0940255 0
0.0487717 0.100967 0
0.0534153 0.0980012 0
0.0627025 0.0920702 0
0.0558986 0.0990115 0
0.0555756 0.0940255 0
0.0534153 0.0980012 0
0.0490947 0.105953 0
0.0487717 0.100967 0
0.0558986 0.0990115 0
0.0534153 0.0980012 0
0.509059 0.256993 0
0.508863 0.257057 0
0.508846 0.256946 0
0.508786 0.257005 0
0.508666 0.257122 0
0.50865 0.25701 0
0.508863 0.257057 0
0.508786 0.257005 0
0.508633 0.256899 0
0.508846 0.256946 0
0.50865 0.25701 0
0.508786 0.257005 0
0.0490947 0.105953 0
0.0558986 0.0990115 0
0.0567687 0.108371 0
0.0587466 0.102937 0
0.0627025 0.0920702 0
0.0635726 0.101429 0
0.0558986 0.0990115 0
0.0587466 0.102937 0
0.0644426 0.110788 0
0.0567687 0.108371 0
0.0635726 0.101429 0
0.0587466 0.102937 0
0.0491215 0.0860027 0
0.0430229 0.0774197 0
0.049528 0.0810172 0
0.0453267 0.076957 0
0.0369243 0.0688366 0
0.0434294 0.0724342 0
0.0430229 0.0774197 0
0.0453267 0.076957 0
0.0499345 0.0760318 0
0.049528 0.0810172 0
0.0434294 0.0724342 0
0.0453267 0.076957 0
0.511543 0.257277 0
0.511155 0.256402 0
0.512003 0.256681 0
0.511591 0.256296 0
0.510767 0.255527 0
0.511614 0.255806 0
0.511155 0.256402 0
0.511591 0.256296 0
0.512462 0.256084 0
0.512003 0.256681 0
0.511614 0.255806 0
0.511591 0.256296 0
0.0337908 0.131074 0
0.0415048 0.133515 0
0.0418586 0.138504 0
0.044312 0.137654 0
0.0492188 0.135955 0
0.0495727 0.140944 0
0.0415048 0.133515 0
0.044312 0.137654 0
0.0499265 0.145934 0
0.0418586 0.138504 0
0.0495727 0.140944 0
0.044312 0.137654 0
0.508509 0.255954 0
0.508508 0.255838 0
0.508622 0.25598 0
0.508584 0.255894 0
0.508507 0.255722 0
0.508621 0.255864 0
0.508508 0.255838 0
0.508584 0.255894 0
0.508735 0.256006 0
0.508622 0.25598 0
0.508621 0.255864 0
0.508584 0.255894 0
0.0544538 0.0565859 0
0.0430874 0.0557477 0
0.0504903 0.047082 0
0.0442339 0.0496912 0
0.031721 0.0549096 0
0.0391239 0.0462439 0
0.0430874 0.0557477 0
0.0442339 0.0496912 0
0.0465268 0.0375782 0
0.0504903 0.047082 0
0.0391239 0.0462439 0
0.0442339 0.0496912 0
0.50994 0.256042 0
0.509799 0.256342 0
0.509642 0.256123 0
0.509647 0.256296 0
0.509658 0.256642 0
0.509501 0.256422 0
0.509799 0.256342 0
0.509647 0.256296 0
0.509344 0.256203 0
0.509642 0.256123 0
0.509501 0.256422 0
0.509647 0.256296 0
0.507709 0.256792 0
0.507694 0.256756 0
0.50772 0.25675 0
0.507706 0.25674 0
0.507679 0.256721 0
0.507705 0.256714 0
0.507694 0.256756 0
0.507706 0.25674 0
0.507731 0.256708 0
0.50772 0.25675 0
0.507705 0.256714 0
0.507706 0.25674 0
0.508917 0.25632 0
0.50913 0.256262 0
0.509064 0.256475 0
0.509157 0.256384 0
0.509344 0.256203 0
0.509277 0.256416 0
0.50913 0.256262 0
0.509157 0.256384 0
0.509211 0.25663 0
0.509064 0.256475 0
0.509277 0.256416 0
0.509157 0.256384 0
0.51004 0.257199 0
0.509849 0.256921 0
0.510118 0.256902 0
0.509965 0.256815 0
0.509658 0.256642 0
0.509927 0.256623 0
0.509849 0.256921 0
0.509965 0.256815 0
0.510197 0.256604 0
0.510118 0.256902 0
0.509927 0.256623 0
0.509965 0.256815 0
0.510197 0.256604 0
0.510482 0.256066 0
0.51087 0.256941 0
0.510836 0.25647 0
0.510767 0.255527 0
0.511155 0.256402 0
0.510482 0.256066 0
0.510836 0.25647 0
0.511543 0.257277 0
0.51087 0.256941 0
0.511155 0.256402 0
0.510836 0.25647 0
0.0814751 0.0360815 0
0.0713737 0.0369399 0
0.0741 0.0327532 0
0.0698241 0.0344349 0
0.0612724 0.0377982 0
0.0639986 0.0336116 0
0.0713737 0.0369399 0
0.0698241 0.0344349 0
0.0667248 0.0294249 0
0.0741 0.0327532 0
0.0639986 0.0336116 0
0.0698241 0.0344349 0
0.0749625 0 0
0.0665253 0.00740327 0
0.0624688 0 0
0.0610085 0.00493551 0
0.0580881 0.0148065 0
0.0540315 0.00740327 0
0.0665253 0.00740327 0
0.0610085 0.00493551 0
0.049975 0 0
0.0624688 0 0
0.0540315 0.00740327 0
0.0610085 0.00493551 0
0.0716044 0.0670214 0
0.0736197 0.083124 0
0.0671535 0.0795458 0
0.0699806 0.0861061 0
0.075635 0.0992266 0
0.0691687 0.0956484 0
0.0736197 0.083124 0
0.0699806 0.0861061 0
0.0627025 0.0920702 0
0.0671535 0.0795458 0
0.0691687 0.0956484 0
0.0699806 0.0861061 0
0.509428 0.257131 0
0.509244 0.257062 0
0.509319 0.25688 0
0.509233 0.256918 0
0.509059 0.256993 0
0.509135 0.256811 0
0.509244 0.257062 0
0.509233 0.256918 0
0.509211 0.25663 0
0.509319 0.25688 0
0.509135 0.256811 0
0.509233 0.256918 0
0.509658 0.256642 0
0.509849 0.256921 0
0.509543 0.256886 0
0.509709 0.256991 0
0.51004 0.257199 0
0.509734 0.257165 0
0.509849 0.256921 0
0.509709 0.256991 0
0.509428 0.257131 0
0.509543 0.256886 0
0.509734 0.257165 0
0.509709 0.256991 0
0.508639 0.256514 0
0.508652 0.256385 0
0.508778 0.256417 0
0.50874 0.256363 0
0.508664 0.256255 0
0.508791 0.256288 0
0.508652 0.256385 0
0.50874 0.256363 0
0.508917 0.25632 0
0.508778 0.256417 0
0.508791 0.256288 0
0.50874 0.256363 0
0.0716044 0.0670214 0
0.0630765 0.0618197 0
0.0646816 0.0570852 0
0.0613039 0.0569295 0
0.0545485 0.056618 0
0.0561537 0.0518836 0
0.0630765 0.0618197 0
0.0613039 0.0569295 0
0.0577588 0.0471491 0
0.0646816 0.0570852 0
0.0561537 0.0518836 0
0.0613039 0.0569295 0
0.510767 0.255527 0
0.510353 0.255785 0
0.510323 0.255478 0
0.510196 0.255666 0
0.50994 0.256042 0
0.50991 0.255735 0
0.510353 0.255785 0
0.510196 0.255666 0
0.50988 0.255428 0
0.510323 0.255478 0
0.50991 0.255735 0
0.510196 0.255666 0
0.509658 0.256642 0
0.509799 0.256342 0
0.509927 0.256623 0
0.509932 0.256429 0
0.50994 0.256042 0
0.510068 0.256323 0
0.509799 0.256342 0
0.509932 0.256429 0
0.510197 0.256604 0
0.509927 0.256623 0
0.510068 0.256323 0
0.509932 0.256429 0
0.50994 0.256042 0
0.509672 0.255857 0
0.50991 0.255735 0
0.509741 0.255714 0
0.509404 0.255671 0
0.509642 0.255549 0
0.509672 0.255857 0
0.509741 0.255714 0
0.50988 0.255428 0
0.50991 0.255735 0
0.509642 0.255549 0
0.509741 0.255714 0
0.508434 0.256374 0
0.508361 0.256372 0
0.508402 0.256257 0
0.508364 0.256294 0
0.508289 0.25637 0
0.508329 0.256254 0
0.508361 0.256372 0
0.508364 0.256294 0
0.508369 0.256139 0
0.508402 0.256257 0
0.508329 0.256254 0
0.508364 0.256294 0
0.0612724 0.0377982 0
0.072989 0.0448684 0
0.0595156 0.0424736 0
[...]
POINT_DATA 47748
SCALARS solution double 1
LOOKUP_TABLE default
0.00206723 0.00205226 0.00196559 0.00198708 0.00204551 0.00194588 0.00205226 0.00198708 0.00186013 0.00196559 0.00194588 0.00198708 0 0 0.00015685 0.000110098 0 0.000152948 0 0.000110098 0.000254325 0.00015685 0.000152948 0.000110098 0.00053744 0.000684461 0.000547971 0.000645674 0.000855279 0.000710097 0.000684461 0.000645674 0.000563029 0.000547971 0.000710097 0.000645674 0.000254325 0.000152948 0.000153406 0.000107817 0 0 0.000152948 0.000107817 0 0.000153406 0 0.000107817 0 0 0.000137093 8.81366e-05 0 0.000129217 0 8.81366e-05 0.000270285 0.000137093 0.000129217 8.81366e-05 0 0 0.00016677 0.000116159 0 0.000163837 0 0.000116159 0.000273859 0.00016677 0.000163837 0.000116159 0.00265174 0.00220148 0.0020076 0.00192003 0.0016866 0.00153427 0.00220148 0.00192003 0.00135892 0.0020076 0.00153427 0.00192003 0.000270285 0.000129217 0.000284502 0.000187377 0 0.000149652 0.000129217 0.000187377 0.000298012 0.000284502 0.000149652 0.000187377 0 0.000228585 0 0.00016892 0.000312009 0.000229017 0.000228585 0.00016892 0 0 0.000229017 0.00016892 0.00135892 0.000690169 0.000685928 0.000462349 0 0 0.000690169 0.000462349 0 0.000685928 0 0.000462349 0.00153882 0.00133105 0.00141856 0.0013201 0.00109794 0.00120839 0.00133105 0.0013201 0.0013088 0.00141856 0.00120839 0.0013201 0.000298012 0.000142539 0.000423613 0.000279796 0 0.00027185 0.000142539 0.000279796 0.00053744 0.000423613 0.00027185 0.000279796 0.00109794 0.000973759 0.00120839 0.00109603 0.000855279 0.00109787 0.000973759 0.00109603 0.0013088 0.00120839 0.00109787 0.00109603 0.00455604 0.00348655 0.00747048 0.00608689 0.00247715 0.00682733 0.00348655 0.00608689 0.00937558 0.00747048 0.00682733 0.00608689 0 0.000142539 0 9.66055e-05 0.000298012 0.000149652 0.000142539 9.66055e-05 0 0 0.000149652 9.66055e-05 0.000563029 0.000530196 0.000420814 0.000443792 0.000495073 0.000379188 0.000530196 0.000443792 0.000270285 0.000420814 0.000379188 0.000443792 0 0.000690169 0 0.000492109 0.00135892 0.000747085 0.000690169 0.000492109 0 0 0.000747085 0.000492109 0.000844308 0.000846651 0.000777226 0.000800882 0.000852112 0.0007783 0.000846651 0.000800882 0.000704343 0.000777226 0.0007783 0.000800882 0 0.000747085 0.000862508 0.00105542 0.00135892 0.00153427 0.000747085 0.00105542 0.0016866 0.000862508 0.00153427 0.00105542 0 0.000156899 0 0.000111122 0.000273859 0.000163837 0.000156899 0.000111122 0 0 0.000163837 0.000111122 0.0013088 0.000930845 0.00114981 0.000958574 0.00053744 0.000791732 0.000930845 0.000958574 0.00101295 0.00114981 0.000791732 0.000958574 0.00026996 0.000167753 0.00016676 0.000118256 0 0 0.000167753 0.000118256 0 0.00016676 0 0.000118256 0.000115321 5.65228e-05 0.000169664 0.000112521 0 0.000111205 5.65228e-05 0.000112521 0.000221638 0.000169664 0.000111205 0.000112521 0 0.000239337 0.000159844 0.000249673 0.000348864 0.000319952 0.000239337 0.000249673 0.00026688 0.000159844 0.000319952 0.000249673 0.000563029 0.000663851 0.000530196 0.000610065 0.000774679 0.000637198 0.000663851 0.000610065 0.000495073 0.000530196 0.000637198 0.000610065 0.000352017 0.000311649 0.000317216 0.000302063 0.000271155 0.000277528 0.000311649 0.000302063 0.000283753 0.000317216 0.000277528 0.000302063 0.000440977 0.000468843 0.000561692 0.000537837 0.000495073 0.000583217 0.000468843 0.000537837 0.000677302 0.000561692 0.000583217 0.000537837 0.00109794 0.000940389 0.000973759 0.000910165 0.000774679 0.00081605 0.000940389 0.000910165 0.000855279 0.000973759 0.00081605 0.000910165 0.000855279 0.000684461 0.00109787 0.000906158 0.00053744 0.000930845 0.000684461 0.000906158 0.0013088 0.00109787 0.000930845 0.000906158 0.00108086 0.000563362 0.000533968 0.000371401 0 0 0.000563362 0.000371401 0 0.000533968 0 0.000371401 0 8.05035e-05 0 7.13034e-05 0.000162534 0.00011787 8.05035e-05 7.13034e-05 0 0 0.00011787 7.13034e-05 0.00161815 0.0021794 0.00156075 0.00192869 0.00265174 0.0020076 0.0021794 0.00192869 0.00135892 0.00156075 0.0020076 0.00192869 0.000978792 0.000913646 0.000830182 0.000834301 0.000844308 0.000758233 0.000913646 0.000834301 0.000677302 0.000830182 0.000758233 0.000834301 0.000774679 0.000940389 0.000872987 0.000951651 0.00109794 0.00104024 0.000940389 0.000951651 0.000978792 0.000872987 0.00104024 0.000951651 0.000469867 0.000398711 0.000454263 0.000413274 0.000330346 0.000387095 0.000398711 0.000413274 0.000440977 0.000454263 0.000387095 0.000413274 0.00161815 0.000817941 0.000809107 0.000546255 0 0 0.000817941 0.000546255 0 0.000809107 0 0.000546255 0.00053744 0.000547971 0.000423613 0.000466865 0.000563029 0.000428081 0.000547971 0.000466865 0.000298012 0.000423613 0.000428081 0.000466865 0.000774679 0.000663851 0.00081605 0.000729789 0.000563029 0.000710097 0.000663851 0.000729789 0.000855279 0.00081605 0.000710097 0.000729789 0.000563029 0.000420814 0.000428081 0.000377877 0.000270285 0.000284502 0.000420814 0.000377877 0.000298012 0.000428081 0.000284502 0.000377877 0.000322196 0.000295367 0.000241285 0.000249601 0.000267415 0.000212836 0.000295367 0.000249601 0.00016195 0.000241285 0.000212836 0.000249601 0 0.000975832 0 0.000674863 0.00198648 0.00103294 0.000975832 0.000674863 0 0 0.00103294 0.000674863 0 0.000229017 0.000156899 0.000240827 0.000312009 0.000302394 0.000229017 0.000240827 0.000273859 0.000156899 0.000302394 0.000240827 0 0.000263198 0 0.000218546 0.000348864 0.000292021 0.000263198 0.000218546 0 0 0.000292021 0.000218546 0.00161815 0.000809107 0.00185393 0.00124131 0 0.00103294 0.000809107 0.00124131 0.00198648 0.00185393 0.00103294 0.00124131 0 0 0.000823454 0.000552139 0 0.000817941 0 0.000552139 0.00161815 0.000823454 0.000817941 0.000552139 0.000348864 0.000239337 0.00024004 0.000175062 0 0 0.000239337 0.000175062 0 0.00024004 0 0.000175062 0 0 0.000106913 8.60208e-05 0 0.000126714 0 8.60208e-05 0.000162534 0.000106913 0.000126714 8.60208e-05 0 0.000862508 0 0.000587382 0.0016866 0.000878613 0.000862508 0.000587382 0 0 0.000878613 0.000587382 0 0 0.00027185 0.000172186 0 0.00025151 0 0.000172186 0.00053744 0.00027185 0.00025151 0.000172186 0.00193732 0.00196547 0.00190746 0.00193705 0.00199626 0.00193873 0.00196547 0.00193705 0.00187942 0.00190746 0.00193873 0.00193705 0.00138412 0.00124116 0.00146375 0.00134725 0.00109794 0.00133105 0.00124116 0.00134725 0.00153882 0.00146375 0.00133105 0.00134725 0 0 0.00021462 0.000154002 0 0.000226666 0 0.000154002 0.000368701 0.00021462 0.000226666 0.000154002 0.00101295 0.00051541 0.000902927 0.000629829 0 0.000456458 0.00051541 0.000629829 0.000824541 0.000902927 0.000456458 0.000629829 0 0 0.000850712 0.000577451 0 0.000863604 0 0.000577451 0.0016849 0.000850712 0.000863604 0.000577451 0.00158368 0.000961909 0.000732486 0.000563076 0 0 0.000961909 0.000563076 0 0.000732486 0 0.000563076 0 0.00101533 0.000395088 0.000955 0.0018557 0.00140263 0.00101533 0.000955 0.000824541 0.000395088 0.00140263 0.000955 0.00201981 0.00102138 0.00187029 0.00127644 0 0.000913064 0.00102138 0.00127644 0.00169543 0.00187029 0.000913064 0.00127644 0.000368701 0.000466928 0.000376103 0.000376324 0.000352269 0.000185298 0.000466928 0.000376324 0 0.000376103 0.000185298 0.000376324 0.00181104 0.00143806 0.00129987 0.00121119 0.00101295 0.000902927 0.00143806 0.00121119 0.000824541 0.00129987 0.000902927 0.00121119 0.00282175 0.00299691 0.00261501 0.0028129 0.00326269 0.002846 0.00299691 0.0028129 0.00239373 0.00261501 0.002846 0.0028129 0.00154208 0.0015641 0.00169007 0.00165739 0.00159024 0.00171895 0.0015641 0.00165739 0.00184308 0.00169007 0.00171895 0.00165739 0 0.00025993 0 0.000179845 0.000420415 0.000249924 0.00025993 0.000179845 0 0 0.000249924 0.000179845 0.000289476 0.000198535 0.000266711 0.00021572 0 0.000178965 0.000198535 0.00021572 0.000261353 0.000266711 0.000178965 0.00021572 0 0.000852792 0 0.000570505 0.00169543 0.000850152 0.000852792 0.000570505 0 0 0.000850152 0.000570505 0 0.00119647 0.00113807 0.00152571 0.00234254 0.00224524 0.00119647 0.00152571 0.00216801 0.00113807 0.00224524 0.00152571 0.00416687 0.00391715 0.00353749 0.00349977 0.00300532 0.00287407 0.00391715 0.00349977 0.00265174 0.00353749 0.00287407 0.00349977 0 0.000850712 0 0.000575444 0.0016849 0.000862368 0.000850712 0.000575444 0 0 0.000862368 0.000575444 0.00607847 0.004155 0.00429504 0.0035766 0.00198852 0.00217113 0.004155 0.0035766 0.00235029 0.00429504 0.00217113 0.0035766 0 0 0.00088873 0.000597665 0 0.000878613 0 0.000597665 0.0016866 0.00088873 0.000878613 0.000597665 0.000352269 0.000466928 0.00050907 0.000482101 0.000368701 0.000393516 0.000466928 0.000482101 0.000420415 0.00050907 0.000393516 0.000482101 0 0.00114931 0 0.000760163 0.00220042 0.00109596 0.00114931 0.000760163 0 0 0.00109596 0.000760163 0.00234254 0.00321016 0.00400328 0.00401603 0.00403048 0.0048095 0.00321016 0.00401603 0.00555596 0.00400328 0.0048095 0.00401603 0.00221256 0.00315219 0.00222041 0.00284018 0.00403048 0.00312691 0.00315219 0.00284018 0.00220042 0.00222041 0.00312691 0.00284018 0.000513326 0.000310471 0.000323258 0.00022427 0 0 0.000310471 0.00022427 0 0.000323258 0 0.00022427 0.0023304 0.00304883 0.00345545 0.00355308 0.00371868 0.00413902 0.00304883 0.00355308 0.00453784 0.00345545 0.00413902 0.00355308 0 0.00102138 0 0.000700779 0.00201981 0.00105907 0.00102138 0.000700779 0 0 0.00105907 0.000700779 0 0.000876795 0.000863441 0.00117175 0.0016849 0.00174093 0.000876795 0.00117175 0.00169543 0.000863441 0.00174093 0.00117175 0 0.00119739 0.00107322 0.0015156 0.0023304 0.00224725 0.00119739 0.0015156 0.00212807 0.00107322 0.00224725 0.0015156 0.0016849 0.000863604 0.00236807 0.00160559 0 0.00155782 0.000863604 0.00160559 0.00300532 0.00236807 0.00155782 0.00160559 0.000352269 0.00050907 0.000551394 0.000535445 0.000420415 0.000466065 0.00050907 0.000535445 0.000513326 0.000551394 0.000466065 0.000535445 0 0.000310787 0.000246389 0.000318271 0.000273859 0.000302394 0.000310787 0.000318271 0.000312009 0.000246389 0.000302394 0.000318271 0.00330184 0.00253833 0.00324634 0.00273447 0.0016849 0.00236807 0.00253833 0.00273447 0.00300532 0.00324634 0.00236807 0.00273447 0 0.000236631 0.000280132 0.000296107 0.000312009 0.000290675 0.000236631 0.000296107 0.000254325 0.000280132 0.000290675 0.000296107 0 0 0.000249579 0.000171894 0 0.000250691 0 0.000171894 0.000459767 0.000249579 0.000250691 0.000171894 0.000348864 0.00024004 0.000317544 0.000251963 0 0.00016677 0.00024004 0.000251963 0.000273859 0.000317544 0.00016677 0.000251963 0 0.0019245 0.00115691 0.00205703 0.00371868 0.00304883 0.0019245 0.00205703 0.0023304 0.00115691 0.00304883 0.00205703 0.00287204 0.00531472 0.00247066 0.00433527 0.00736995 0.00502498 0.00531472 0.00433527 0.00290671 0.00247066 0.00502498 0.00433527 0.000330724 0.00023551 0.000344577 0.000274084 0 0.00021462 0.00023551 0.000274084 0.000368701 0.000344577 0.00021462 0.000274084 0 0.000260097 0 0.000204316 0.000330724 0.000289451 0.000260097 0.000204316 0 0 0.000289451 0.000204316 0 0.000138512 0.000126714 0.000167546 0.00026688 0.000225127 0.000138512 0.000167546 0.000162534 0.000126714 0.000225127 0.000167546 0 0 0.00121045 0.00078711 0 0.00115691 0 0.00078711 0.0023304 0.00121045 0.00115691 0.00078711 0.000964004 0.000850499 0.000957122 0.000849522 0.000650918 0.00069219 0.000850499 0.000849522 0.000732232 0.000957122 0.00069219 0.000849522 0.00169543 0.000913064 0.000850152 0.000600468 0 0 0.000913064 0.000600468 0 0.000850152 0 0.000600468 0.000513326 0.000331531 0.000580257 0.000458871 0 0.000412965 0.000331531 0.000458871 0.000650918 0.000580257 0.000412965 0.000458871 0.00201981 0.00104821 0.00105907 0.000708094 0 0 0.00104821 0.000708094 0 0.00105907 0 0.000708094 0.0023304 0.00345545 0.00224725 0.0030368 0.00453784 0.00337743 0.00345545 0.0030368 0.00212807 0.00224725 0.00337743 0.0030368 0.00156147 0.00134595 0.000769136 0.000900954 0.00108086 0.00057206 0.00134595 0.000900954 0 0.000769136 0.00057206 0.000900954 0.000626183 0.000335104 0.00032835 0.000227017 0 0 0.000335104 0.000227017 0 0.00032835 0 0.000227017 0.00026996 0.00016676 0.000301591 0.000242401 0 0.00022797 0.00016676 0.000242401 0.000330724 0.000301591 0.00022797 0.000242401 0.00221256 0.00218198 0.00306973 0.00276275 0.00212807 0.00302222 0.00218198 0.00276275 0.00388692 0.00306973 0.00302222 0.00276275 0.00026996 0.000165083 0.000167753 0.000117789 0 0 0.000165083 0.000117789 0 0.000167753 0 0.000117789 0.000254325 0.000154417 0.000260889 0.000199655 0 0.000165083 0.000154417 0.000199655 0.00026996 0.000260889 0.000165083 0.000199655 0.00101295 0.00143806 0.00114981 0.00139549 0.00181104 0.00158129 0.00143806 0.00139549 0.0013088 0.00114981 0.00158129 0.00139549 0 4.51262e-05 6.26767e-05 4.83702e-05 0 0 4.51262e-05 4.83702e-05 0 6.26767e-05 0 4.83702e-05 0.0023304 0.00118947 0.00121045 0.000808121 0 0 0.00118947 0.000808121 0 0.00121045 0 0.000808121 0 0.00076591 0 0.000508298 0.00156147 0.000769136 0.00076591 0.000508298 0 0 0.000769136 0.000508298 0.00125181 0.00117031 0.00131977 0.00124355 0.00109794 0.00124116 0.00117031 0.00124355 0.00138412 0.00131977 0.00124116 0.00124355 0 0 0.00107004 0.000728363 0 0.00109925 0 0.000728363 0.00212807 0.00107004 0.00109925 0.000728363 0 0 0.00147367 0.00099281 0 0.00145393 0 0.00099281 0.00277656 0.00147367 0.00145393 0.00099281 0 0 0.000153406 0.000108673 0 0.000154417 0 0.000108673 0.000254325 0.000153406 0.000154417 0.000108673 0.00200733 0.00452676 0.00234789 0.00401254 0.00653403 0.00493254 0.00452676 0.00401254 0.00275993 0.00234789 0.00493254 0.00401254 0 0.000438962 0 0.000305384 0.000732232 0.000432601 0.000438962 0.000305384 0 0 0.000432601 0.000305384 0.00137591 0.00097585 0.0010958 0.000909872 0.000483039 0.000613135 0.00097585 0.000909872 0.000698262 0.0010958 0.000613135 0.000909872 0 0.0011195 0 0.000760925 0.00221256 0.00114378 0.0011195 0.000760925 0 0 0.00114378 0.000760925 0.000698262 0.000393425 0.000779316 0.000554366 0 0.000458522 0.000393425 0.000554366 0.000822045 0.000779316 0.000458522 0.000554366 0.00097178 0.000778611 0.000877305 0.000785312 0.000564275 0.000671171 0.000778611 0.000785312 0.000707801 0.000877305 0.000671171 0.000785312 0.00221256 0.00222041 0.00114378 0.0015104 0.00220042 0.00114931 0.00222041 0.0015104 0 0.00114378 0.00114931 0.0015104 0.00100088 0.000582996 0.000838985 0.000598317 0 0.000335104 0.000582996 0.000598317 0.000626183 0.000838985 0.000335104 0.000598317 0.00239373 0.00217244 0.00210879 0.00204858 0.00192295 0.00185787 0.00217244 0.00204858 0.00180723 0.00210879 0.00185787 0.00204858 0.000626183 0.00032835 0.000339215 0.000227339 0 0 0.00032835 0.000227339 0 0.000339215 0 0.000227339 0.00214726 0.00229456 0.00215984 0.00225559 0.00243619 0.00231044 0.00229456 0.00225559 0.00217686 0.00215984 0.00231044 0.00225559 0 0 0 8.10981e-06 0 1.15678e-05 0 8.10981e-06 0 0 1.15678e-05 8.10981e-06 0.000176422 8.61333e-05 0.000224978 0.000149636 0 0.000137093 8.61333e-05 0.000149636 0.000270285 0.000224978 0.000137093 0.000149636 0.00156147 0.00076591 0.000913714 0.000578605 0 0 0.00076591 0.000578605 0 0.000913714 0 0.000578605 0.00290671 0.00301168 0.00159718 0.0022133 0.00316016 0.00190786 0.00301168 0.0022133 0 0.00159718 0.00190786 0.0022133 0.00736995 0.00531472 0.00554465 0.00468396 0.00287204 0.00310489 0.00531472 0.00468396 0.00324484 0.00554465 0.00310489 0.00468396 0.00221256 0.0011195 0.00218198 0.00147264 0 0.00109452 0.0011195 0.00147264 0.00212807 0.00218198 0.00109452 0.00147264 0.000495073 0.000637198 0.000583217 0.000649533 0.000774679 0.000727544 0.000637198 0.000649533 0.000677302 0.000583217 0.000727544 0.000649533 0.000978792 0.000830182 0.000872987 0.000810092 0.000677302 0.000727544 0.000830182 0.000810092 0.000774679 0.000872987 0.000727544 0.000810092 0.00118067 0.00146261 0.000533505 0.000973243 0.00169311 0.000879281 0.00146261 0.000973243 0 0.000533505 0.000879281 0.000973243 0.00434635 0.00867358 0.00435829 0.0077325 0.00960141 0.00884652 0.00867358 0.0077325 0.0047233 0.00435829 0.00884652 0.0077325 0 9.43024e-05 0.000267798 0.000230026 0 0.000317695 9.43024e-05 0.000230026 0.000483039 0.000267798 0.000317695 0.000230026 0 0.00147367 0.00257891 0.00259982 0.00277656 0.00369709 0.00147367 0.00259982 0.0047233 0.00257891 0.00369709 0.00259982 0 0 0.000550615 0.000365791 0 0.000522357 0 0.000365791 0.000998704 0.000550615 0.000522357 0.000365791 0.000513326 0.000323258 0.000331531 0.000234478 0 0 0.000323258 0.000234478 0 0.000331531 0 0.000234478 0.000420415 0.000247463 0.000249924 0.000174664 0 0 0.000247463 0.000174664 0 0.000249924 0 0.000174664 0.00960141 0.0067217 0.0070737 0.00500981 0 0 0.0067217 0.00500981 0 0.0070737 0 0.00500981 0 0.00107004 0 0.00072824 0.00212807 0.00109452 0.00107004 0.00072824 0 0 0.00109452 0.00072824 0 0.000395088 0 0.000269314 0.000824541 0.000420028 0.000395088 0.000269314 0 0 0.000420028 0.000269314 0.00220042 0.00112183 0.00109596 0.000742369 0 0 0.00112183 0.000742369 0 0.00109596 0 0.000742369 0.00594368 0.00335746 0.00497032 0.00346656 0 0.00194205 0.00335746 0.00346656 0.00383022 0.00497032 0.00194205 0.00346656 0.00234254 0.00118426 0.00116848 0.000785026 0 0 0.00118426 0.000785026 0 0.00116848 0 0.000785026 0.00158368 0.000875226 0.00235414 0.00156601 0 0.00147772 0.000875226 0.00156601 0.00287503 0.00235414 0.00147772 0.00156601 0.00101892 0.00102593 0.00104216 0.00103906 0.00103361 0.00104916 0.00102593 0.00103906 0.00106492 0.00104216 0.00104916 0.00103906 0 6.26767e-05 8.05035e-05 9.10019e-05 0 0.000106913 6.26767e-05 9.10019e-05 0.000162534 8.05035e-05 0.000106913 9.10019e-05 0.000459767 0.000594943 0.000579495 0.000624942 0.000732232 0.00069219 0.000594943 0.000624942 0.000650918 0.000579495 0.00069219 0.000624942 0 0 0.000299564 0.000202091 0 0.000295231 0 0.000202091 0.000564275 0.000299564 0.000295231 0.000202091 0 0.00161985 0 0.00106877 0.00306546 0.00152838 0.00161985 0.00106877 0 0 0.00152838 0.00106877 0 0 0.000402095 0.000267863 0 0.000376968 0 0.000267863 0.000707801 0.000402095 0.000376968 0.000267863 0 0.000446398 0 0.000309719 0.000761043 0.000442511 0.000446398 0.000309719 0 0 0.000442511 0.000309719 0.00154543 0.00130629 0.00115794 0.00109753 0.000892684 0.00078552 0.00130629 0.00109753 0.000678982 0.00115794 0.00078552 0.00109753 0 0.00110653 0 0.000732638 0.00216801 0.00108195 0.00110653 0.000732638 0 0 0.00108195 0.000732638 0.00175887 0.000890399 0.000897009 0.000600856 0 0 0.000890399 0.000600856 0 0.000897009 0 0.000600856 0 0 0.000418236 0.000282478 0 0.000382795 0 0.000282478 0.000678982 0.000418236 0.000382795 0.000282478 0 0.00118426 0 0.000810942 0.00234254 0.0012266 0.00118426 0.000810942 0 0 0.0012266 0.000810942 0.000912783 0.000973545 0.000766307 0.000864612 0.00100088 0.000838985 0.000973545 0.000864612 0.000626183 0.000766307 0.000838985 0.000864612 0.00155524 0.00106135 0.000862286 0.000692545 0 0 0.00106135 0.000692545 0 0.000862286 0 0.000692545 0 0.000890399 0 0.000618927 0.00175887 0.000937426 0.000890399 0.000618927 0 0 0.000937426 0.000618927 0.00306534 0.00277216 0.00402367 0.00346341 0.00241134 0.00348976 0.00277216 0.00346341 0.00455247 0.00402367 0.00348976 0.00346341 0.00102017 0.000548381 0.000562233 0.000381089 0 0 0.000548381 0.000381089 0 0.000562233 0 0.000381089 0 0.000915341 0.000790936 0.00117121 0.00203649 0.00180333 0.000915341 0.00117121 0.00153793 0.000790936 0.00180333 0.00117121 0.00216801 0.00256341 0.00113944 0.001752 0.00291552 0.00153236 0.00256341 0.001752 0 0.00113944 0.00153236 0.001752 0.00199246 0.0015679 0.00161475 0.00141744 0.000998704 0.0010097 0.0015679 0.00141744 0.00102017 0.00161475 0.0010097 0.00141744 0 0 0.00366159 0.00241445 0 0.00332705 0 0.00241445 0.00652489 0.00366159 0.00332705 0.00241445 0 0.00219529 0.00188382 0.00250627 0.00391336 0.00350528 0.00219529 0.00250627 0.00328807 0.00188382 0.00350528 0.00250627 0.00265233 0.00215419 0.00254604 0.00221018 0.00153793 0.00180333 0.00215419 0.00221018 0.00203649 0.00254604 0.00180333 0.00221018 0.00216801 0.00113944 0.00108195 0.000753798 0 0 0.00113944 0.000753798 0 0.00108195 0 0.000753798 0