# vtk DataFile Version 3.0
#This file was generated by the deal.II library on 2019/3/29 at 19:54:51
ASCII
DATASET UNSTRUCTURED_GRID

POINTS 55428 double
0.196721 0.553175 0
0.197653 0.545241 0
0.208593 0.550548 0
0.205257 0.546134 0
0.198585 0.537306 0
0.209525 0.542613 0
0.197653 0.545241 0
0.205257 0.546134 0
0.220464 0.54792 0
0.208593 0.550548 0
0.209525 0.542613 0
0.205257 0.546134 0
0 0.0625 0
0.0126214 0.0808605 0
0 0.09375 0
0.00841424 0.0955737 0
0.0252427 0.099221 0
0.0126214 0.112111 0
0.0126214 0.0808605 0
0.00841424 0.0955737 0
0 0.125 0
0 0.09375 0
0.0126214 0.112111 0
0.00841424 0.0955737 0
0.177761 0.520208 0
0.188173 0.528757 0
0.180777 0.529764 0
0.186713 0.532278 0
0.198585 0.537306 0
0.191189 0.538312 0
0.188173 0.528757 0
0.186713 0.532278 0
0.183793 0.539319 0
0.180777 0.529764 0
0.191189 0.538312 0
0.186713 0.532278 0
0.0997825 0.469334 0
0.0880478 0.452919 0
0.0990932 0.458748 0
0.0914998 0.451333 0
0.0763131 0.436503 0
0.0873585 0.442332 0
0.0880478 0.452919 0
0.0914998 0.451333 0
0.0984039 0.448162 0
0.0990932 0.458748 0
0.0873585 0.442332 0
0.0914998 0.451333 0
0.0463941 0.0952912 0
0.0534969 0.0981545 0
0.0461407 0.100284 0
0.0509603 0.100528 0
0.0605997 0.101018 0
0.0532435 0.103147 0
0.0534969 0.0981545 0
0.0509603 0.100528 0
0.0458872 0.105276 0
0.0461407 0.100284 0
0.0532435 0.103147 0
0.0509603 0.100528 0
0.194862 0.574126 0
0.195792 0.563651 0
0.205091 0.573623 0
0.202301 0.566807 0
0.196721 0.553175 0
0.206021 0.563148 0
0.195792 0.563651 0
0.202301 0.566807 0
0.21532 0.57312 0
0.205091 0.573623 0
0.206021 0.563148 0
0.202301 0.566807 0
0.192358 0.600239 0
0.162666 0.608597 0
0.184636 0.591873 0
0.167415 0.600233 0
0.132973 0.616954 0
0.154944 0.600231 0
0.162666 0.608597 0
0.167415 0.600233 0
0.176915 0.583507 0
0.184636 0.591873 0
0.154944 0.600231 0
0.167415 0.600233 0
0.0605997 0.101018 0
0.0606673 0.110567 0
0.053249 0.108146 0
0.0557443 0.112136 0
0.0607349 0.120115 0
0.0533166 0.117695 0
0.0606673 0.110567 0
0.0557443 0.112136 0
0.0458982 0.115274 0
0.053249 0.108146 0
0.0533166 0.117695 0
0.0557443 0.112136 0
0.0457874 0.105271 0
0.0457928 0.110273 0
0.035515 0.102246 0
0.0389428 0.106589 0
0.0457982 0.115274 0
0.0355205 0.107247 0
0.0457928 0.110273 0
0.0389428 0.106589 0
0.0252427 0.099221 0
0.035515 0.102246 0
0.0355205 0.107247 0
0.0389428 0.106589 0
0.163674 0.535145 0
0.173734 0.537232 0
0.166544 0.539238 0
0.172294 0.539265 0
0.183793 0.539319 0
0.176603 0.541325 0
0.173734 0.537232 0
0.172294 0.539265 0
0.169414 0.543332 0
0.166544 0.539238 0
0.176603 0.541325 0
0.172294 0.539265 0
0.130829 0.473442 0
0.134879 0.463854 0
0.144183 0.470384 0
0.142431 0.465011 0
0.138928 0.454265 0
0.148232 0.460795 0
0.134879 0.463854 0
0.142431 0.465011 0
0.157537 0.467325 0
0.144183 0.470384 0
0.148232 0.460795 0
0.142431 0.465011 0
0.146472 0.440468 0
0.152004 0.453896 0
0.1427 0.447367 0
0.147646 0.454019 0
0.157537 0.467325 0
0.148232 0.460795 0
0.152004 0.453896 0
0.147646 0.454019 0
0.138928 0.454265 0
0.1427 0.447367 0
0.148232 0.460795 0
0.147646 0.454019 0
0.174052 0.500015 0
0.166393 0.499 0
0.165794 0.48367 0
0.163441 0.488442 0
0.158735 0.497985 0
0.158136 0.482655 0
0.166393 0.499 0
0.163441 0.488442 0
0.157537 0.467325 0
0.165794 0.48367 0
0.158136 0.482655 0
0.163441 0.488442 0
0.045905 0.125274 0
0.0344425 0.122896 0
0.0458516 0.120274 0
0.0382278 0.120355 0
0.0229801 0.120518 0
0.0343891 0.117896 0
0.0344425 0.122896 0
0.0382278 0.120355 0
0.0457982 0.115274 0
0.0458516 0.120274 0
0.0343891 0.117896 0
0.0382278 0.120355 0
0.126773 0.40579 0
0.136622 0.423129 0
0.129202 0.420815 0
0.134959 0.427366 0
0.146472 0.440468 0
0.139052 0.438154 0
0.136622 0.423129 0
0.134959 0.427366 0
0.131631 0.435839 0
0.129202 0.420815 0
0.139052 0.438154 0
0.134959 0.427366 0
0.183468 0.393894 0
0.187222 0.415867 0
0.16497 0.417181 0
0.173639 0.424067 0
0.190977 0.43784 0
0.168724 0.439154 0
0.187222 0.415867 0
0.173639 0.424067 0
0.146472 0.440468 0
0.16497 0.417181 0
0.168724 0.439154 0
0.173639 0.424067 0
0.0605997 0.101018 0
0.053249 0.108146 0
0.0532435 0.103147 0
0.0507951 0.107189 0
0.0458982 0.115274 0
0.0458927 0.110275 0
0.053249 0.108146 0
0.0507951 0.107189 0
0.0458872 0.105276 0
0.0532435 0.103147 0
0.0458927 0.110275 0
0.0507951 0.107189 0
0.0315754 0.141123 0
0.0392332 0.143187 0
0.0396394 0.148171 0
0.0420566 0.147198 0
0.046891 0.145251 0
0.0472972 0.150235 0
0.0392332 0.143187 0
0.0420566 0.147198 0
0.0477034 0.155219 0
0.0396394 0.148171 0
0.0472972 0.150235 0
0.0420566 0.147198 0
0.0607349 0.120115 0
0.05337 0.122694 0
0.0533166 0.117695 0
0.0508794 0.120221 0
0.046005 0.125273 0
0.0459516 0.120273 0
0.05337 0.122694 0
0.0508794 0.120221 0
0.0458982 0.115274 0
0.0533166 0.117695 0
0.0459516 0.120273 0
0.0508794 0.120221 0
0.0315754 0.141123 0
0.0389463 0.138195 0
0.0392332 0.143187 0
0.0415946 0.140547 0
0.0463173 0.135267 0
0.0466042 0.140259 0
0.0389463 0.138195 0
0.0415946 0.140547 0
0.046891 0.145251 0
0.0392332 0.143187 0
0.0466042 0.140259 0
0.0415946 0.140547 0
0.0607349 0.120115 0
0.0606673 0.110567 0
0.0667796 0.11518 0
0.0647197 0.11046 0
0.0605997 0.101018 0
0.066712 0.105632 0
0.0606673 0.110567 0
0.0647197 0.11046 0
0.0728243 0.110246 0
0.0667796 0.11518 0
0.066712 0.105632 0
0.0647197 0.11046 0
0.112482 0.426945 0
0.122057 0.431392 0
0.114287 0.431607 0
0.120068 0.433018 0
0.131631 0.435839 0
0.123862 0.436054 0
0.122057 0.431392 0
0.120068 0.433018 0
0.116092 0.436269 0
0.114287 0.431607 0
0.123862 0.436054 0
0.120068 0.433018 0
0.390164 0.544767 0
0.382279 0.547657 0
0.378437 0.524971 0
0.377089 0.533496 0
0.374394 0.550546 0
0.370552 0.52786 0
0.382279 0.547657 0
0.377089 0.533496 0
0.36671 0.505174 0
0.378437 0.524971 0
0.370552 0.52786 0
0.377089 0.533496 0
0.0527203 0.0558769 0
0.0484466 0.0453027 0
0.0544233 0.0511725 0
0.0510065 0.0456911 0
0.0441729 0.0347285 0
0.0501496 0.0405983 0
0.0484466 0.0453027 0
0.0510065 0.0456911 0
0.0561263 0.0464681 0
0.0544233 0.0511725 0
0.0501496 0.0405983 0
0.0510065 0.0456911 0
0.42497 0.562107 0
0.420516 0.559797 0
0.429852 0.55552 0
0.425255 0.556176 0
0.416061 0.557487 0
0.425398 0.553211 0
0.420516 0.559797 0
0.425255 0.556176 0
0.434735 0.548934 0
0.429852 0.55552 0
0.425398 0.553211 0
0.425255 0.556176 0
0.351251 0.560711 0
0.340206 0.564596 0
0.33854 0.542213 0
0.335414 0.550969 0
0.329162 0.56848 0
0.327495 0.546098 0
0.340206 0.564596 0
0.335414 0.550969 0
0.325829 0.523715 0
0.33854 0.542213 0
0.327495 0.546098 0
0.335414 0.550969 0
0.377099 0.587965 0
0.385262 0.586388 0
0.385428 0.609165 0
0.388094 0.601047 0
0.393424 0.584811 0
0.393591 0.607588 0
0.385262 0.586388 0
0.388094 0.601047 0
0.393757 0.630365 0
0.385428 0.609165 0
0.393591 0.607588 0
0.388094 0.601047 0
0.0441729 0.0347285 0
0.0524295 0.0361441 0
0.0501496 0.0405983 0
0.0536618 0.0395854 0
0.0606862 0.0375597 0
0.0584063 0.0420139 0
0.0524295 0.0361441 0
0.0536618 0.0395854 0
0.0561263 0.0464681 0
0.0501496 0.0405983 0
0.0584063 0.0420139 0
0.0536618 0.0395854 0
0.0666274 0.0295249 0
0.0762567 0.0300773 0
0.0697666 0.0394835 0
0.0751397 0.0365322 0
0.085886 0.0306297 0
0.0793959 0.0400359 0
0.0762567 0.0300773 0
0.0751397 0.0365322 0
0.0729058 0.049442 0
0.0697666 0.0394835 0
0.0793959 0.0400359 0
0.0751397 0.0365322 0
0.403559 0.533137 0
0.419147 0.541036 0
0.40981 0.545312 0
0.418119 0.54652 0
0.434735 0.548934 0
0.425398 0.553211 0
0.419147 0.541036 0
0.418119 0.54652 0
0.416061 0.557487 0
0.40981 0.545312 0
0.425398 0.553211 0
0.418119 0.54652 0
0.0501074 0.0655338 0
0.0422813 0.0667221 0
0.0514139 0.0607053 0
0.045761 0.0631071 0
0.0344552 0.0679105 0
0.0435877 0.0618937 0
0.0422813 0.0667221 0
0.045761 0.0631071 0
0.0527203 0.0558769 0
0.0514139 0.0607053 0
0.0435877 0.0618937 0
0.045761 0.0631071 0
0.0729058 0.049442 0
0.0668365 0.0435302 0
0.0697666 0.0394835 0
0.0667668 0.0388618 0
0.0607672 0.0376183 0
0.0636973 0.0335716 0
0.0668365 0.0435302 0
0.0667668 0.0388618 0
0.0666274 0.0295249 0
0.0697666 0.0394835 0
0.0636973 0.0335716 0
0.0667668 0.0388618 0
0.250961 0.634948 0
0.241413 0.659126 0
0.238594 0.630998 0
0.236351 0.648434 0
0.231866 0.683304 0
0.229047 0.655177 0
0.241413 0.659126 0
0.236351 0.648434 0
0.226228 0.627049 0
0.238594 0.630998 0
0.229047 0.655177 0
0.236351 0.648434 0
0.0471852 0.0853204 0
0.0408202 0.0766155 0
0.0477962 0.0803566 0
0.0433492 0.0762079 0
0.0344552 0.0679105 0
0.0414311 0.0716517 0
0.0408202 0.0766155 0
0.0433492 0.0762079 0
0.0484071 0.0753929 0
0.0477962 0.0803566 0
0.0414311 0.0716517 0
0.0433492 0.0762079 0
0.188109 0.566747 0
0.191449 0.57047 0
0.182512 0.575127 0
0.186604 0.574816 0
0.194788 0.574192 0
0.185851 0.57885 0
0.191449 0.57047 0
0.186604 0.574816 0
0.176915 0.583507 0
0.182512 0.575127 0
0.185851 0.57885 0
0.186604 0.574816 0
0.16359 0.535199 0
0.155735 0.543759 0
0.153262 0.532408 0
0.151468 0.539045 0
0.147881 0.552319 0
0.145407 0.540968 0
0.155735 0.543759 0
0.151468 0.539045 0
0.142934 0.529616 0
0.153262 0.532408 0
0.145407 0.540968 0
0.151468 0.539045 0
0.298862 0.608672 0
0.31004 0.615188 0
0.300295 0.619752 0
0.30727 0.620403 0
0.321218 0.621705 0
0.311473 0.626269 0
0.31004 0.615188 0
0.30727 0.620403 0
0.301728 0.630833 0
0.300295 0.619752 0
0.311473 0.626269 0
0.30727 0.620403 0
0.436288 0.824323 0
0.436337 0.824289 0
0.436335 0.824359 0
0.436352 0.824324 0
0.436387 0.824255 0
0.436385 0.824325 0
0.436337 0.824289 0
0.436352 0.824324 0
0.436383 0.824396 0
0.436335 0.824359 0
0.436385 0.824325 0
0.436352 0.824324 0
0.0729058 0.049442 0
0.0645606 0.0479779 0
0.0668365 0.0435302 0
0.0632961 0.0445247 0
0.0562153 0.0465137 0
0.0584913 0.042066 0
0.0645606 0.0479779 0
0.0632961 0.0445247 0
0.0607672 0.0376183 0
0.0668365 0.0435302 0
0.0584913 0.042066 0
0.0632961 0.0445247 0
0.263533 0.59116 0
0.279973 0.590807 0
0.271581 0.594435 0
0.279859 0.593108 0
0.296413 0.590454 0
0.288022 0.594081 0
0.279973 0.590807 0
0.279859 0.593108 0
0.27963 0.597709 0
0.271581 0.594435 0
0.288022 0.594081 0
0.279859 0.593108 0
0.0562153 0.0465137 0
0.0645606 0.0479779 0
[...]
POINT_DATA 55428
SCALARS solution double 1
LOOKUP_TABLE default
0.00216551 0.00301279 0.00354551 0.00366547 0.00385464 0.00439601 0.00301279 0.00366547 0.0048021 0.00354551 0.00439601 0.00366547 0 0.000227736 0 0.000164242 0.000273983 0.000215293 0.000227736 0.000164242 0 0 0.000215293 0.000164242 0.0030812 0.0035368 0.00259749 0.00305346 0.00385464 0.00299047 0.0035368 0.00305346 0.00208205 0.00259749 0.00299047 0.00305346 0.00161359 0.00163531 0.00138584 0.00149713 0.00161352 0.00144711 0.00163531 0.00149713 0.00117545 0.00138584 0.00144711 0.00149713 0 0.000875789 0 0.000594753 0.00174627 0.000895585 0.000875789 0.000594753 0 0 0.000895585 0.000594753 0 0.00107491 0.000998856 0.0014023 0.00216551 0.0020951 0.00107491 0.0014023 0.00190717 0.000998856 0.0020951 0.0014023 0.00304645 0.00557817 0.00279 0.00468126 0.00691151 0.0052739 0.00557817 0.00468126 0.00260954 0.00279 0.0052739 0.00468126 0.00174627 0.00187145 0.00093457 0.00127381 0.00196004 0.000988435 0.00187145 0.00127381 0 0.00093457 0.000988435 0.00127381 0 0 0.000194188 0.000140336 0 0.000191049 0 0.000140336 0.000273983 0.000194188 0.000191049 0.000140336 0 0.00108412 0 0.000724441 0.00208205 0.00106427 0.00108412 0.000724441 0 0 0.00106427 0.000724441 0 0.00138689 0.00241421 0.00253458 0.00274668 0.00376024 0.00138689 0.00253458 0.00468057 0.00241421 0.00376024 0.00253458 0.00494494 0.00484786 0.0038533 0.00416341 0.00468057 0.00376024 0.00484786 0.00416341 0.00274668 0.0038533 0.00376024 0.00416341 0.00434848 0.00342144 0.00458624 0.00387736 0.00244366 0.00358419 0.00342144 0.00387736 0.00468057 0.00458624 0.00358419 0.00387736 0 0.000203697 0 0.000150767 0.000270588 0.000203367 0.000203697 0.000150767 0 0 0.000203367 0.000150767 0.00398642 0.00452905 0.00342103 0.00396324 0.00494494 0.00390467 0.00452905 0.00396324 0.00281534 0.00342103 0.00390467 0.00396324 0.0133736 0.0124754 0.00934471 0.0101101 0.011415 0.00837075 0.0124754 0.0101101 0.00494494 0.00934471 0.00837075 0.0101101 0.00174627 0.00093457 0.000895585 0.00062163 0 0 0.00093457 0.00062163 0 0.000895585 0 0.00062163 0.000244612 0.000152444 0.000152776 0.000108289 0 0 0.000152444 0.000108289 0 0.000152776 0 0.000108289 0.00196004 0.00100686 0.000988435 0.000670235 0 0 0.00100686 0.000670235 0 0.000988435 0 0.000670235 0.000244612 0.000151209 0.000152444 0.000107662 0 0 0.000151209 0.000107662 0 0.000152444 0 0.000107662 0.00196004 0.00187145 0.00266707 0.00236015 0.00174627 0.00252493 0.00187145 0.00236015 0.00330744 0.00266707 0.00252493 0.00236015 0 0.0014388 0 0.000965119 0.00281534 0.00143874 0.0014388 0.000965119 0 0 0.00143874 0.000965119 0.0053084 0.00487597 0.0104605 0.00858713 0.00464513 0.00998151 0.00487597 0.00858713 0.014423 0.0104605 0.00998151 0.00858713 0 0.00017545 0 0.000125032 0.000281066 0.000177916 0.00017545 0.000125032 0 0 0.000177916 0.000125032 0 0 0.00247432 0.00182983 0 0.00278788 0 0.00182983 0.00486824 0.00247432 0.00278788 0.00182983 0.00420802 0.00419277 0.00815343 0.00676228 0.00413007 0.00780985 0.00419277 0.00676228 0.0113475 0.00815343 0.00780985 0.00676228 0.00162996 0.00173676 0.00366 0.0030111 0.00176687 0.00359418 0.00173676 0.0030111 0.00536926 0.00366 0.00359418 0.0030111 0.000281066 0.000171246 0.000177916 0.00012439 0 0 0.000171246 0.00012439 0 0.000177916 0 0.00012439 0 0.000600951 0.000701498 0.000901898 0.00118177 0.00136951 0.000600951 0.000901898 0.00139969 0.000701498 0.00136951 0.000901898 0.00828222 0.00630195 0.00476028 0.00453053 0.00486824 0.00278788 0.00630195 0.00453053 0 0.00476028 0.00278788 0.00453053 0 0.000168529 0 0.000118085 0.000270843 0.000166546 0.000168529 0.000118085 0 0 0.000166546 0.000118085 0.00139969 0.000684831 0.000701498 0.000464772 0 0 0.000684831 0.000464772 0 0.000701498 0 0.000464772 0.00385511 0.00758161 0.00374571 0.00638264 0.0102074 0.00743816 0.00758161 0.00638264 0.00388672 0.00374571 0.00743816 0.00638264 0 0.000159578 0 0.00011357 0.000270843 0.000164935 0.000159578 0.00011357 0 0 0.000164935 0.00011357 0 0 0.00135948 0.000936048 0 0.00140187 0 0.000936048 0.00260954 0.00135948 0.00140187 0.000936048 0 0.00126848 0.000781577 0.00132178 0.00239303 0.00188709 0.00126848 0.00132178 0.00144222 0.000781577 0.00188709 0.00132178 0 0.00171097 0.00190459 0.00234033 0.00313802 0.00335462 0.00171097 0.00234033 0.00364156 0.00190459 0.00335462 0.00234033 0.000894121 0.000896867 0.000834777 0.000857548 0.000902972 0.00084066 0.000896867 0.000857548 0.000773208 0.000834777 0.00084066 0.000857548 0.00139969 0.000703708 0.000684831 0.000465117 0 0 0.000703708 0.000465117 0 0.000684831 0 0.000465117 0.00252473 0.00261432 0.00224853 0.00235578 0.00233138 0.00211129 0.00261432 0.00235578 0.00184657 0.00224853 0.00211129 0.00235578 0 0.000703708 0.00067155 0.000936408 0.00139969 0.00142065 0.000703708 0.000936408 0.00136424 0.00067155 0.00142065 0.000936408 0.00279597 0.0014661 0.001393 0.000960215 0 0 0.0014661 0.000960215 0 0.001393 0 0.000960215 0.000273983 0.000272755 0.000196342 0.000218137 0.000270843 0.000159578 0.000272755 0.000218137 0 0.000196342 0.000159578 0.000218137 0 0.000674905 0 0.000460191 0.00136424 0.000695691 0.000674905 0.000460191 0 0 0.000695691 0.000460191 0.00136424 0.00149814 0.000741871 0.00101835 0.00157767 0.000787362 0.00149814 0.00101835 0 0.000741871 0.000787362 0.00101835 0.000339135 0.000256175 0.000316206 0.000261031 0 0.000166546 0.000256175 0.000261031 0.000270843 0.000316206 0.000166546 0.000261031 0.000281066 0.000154043 0.000171246 0.00011177 0 0 0.000154043 0.00011177 0 0.000171246 0 0.00011177 0 0 0.00103691 0.000691908 0 0.00100686 0 0.000691908 0.00196004 0.00103691 0.00100686 0.000691908 0.00122728 0.00170816 0.0014541 0.00163727 0.00182197 0.00164889 0.00170816 0.00163727 0.0014555 0.0014541 0.00164889 0.00163727 0.00217015 0.00109396 0.00108434 0.000728383 0 0 0.00109396 0.000728383 0 0.00108434 0 0.000728383 0.00139969 0.00207304 0.00142065 0.00184502 0.00269083 0.00202186 0.00207304 0.00184502 0.00136424 0.00142065 0.00202186 0.00184502 0.000348959 0.000221098 0.000225235 0.000159672 0 0 0.000221098 0.000159672 0 0.000225235 0 0.000159672 0.00174627 0.000866313 0.00168557 0.00112617 0 0.000814139 0.000866313 0.00112617 0.00157767 0.00168557 0.000814139 0.00112617 0 0.00067155 0 0.000449717 0.00136424 0.000674905 0.00067155 0.000449717 0 0 0.000674905 0.000449717 0.00217015 0.00111299 0.00109396 0.000740699 0 0 0.00111299 0.000740699 0 0.00109396 0 0.000740699 0.00330744 0.00244666 0.0030863 0.00257972 0.00157767 0.00216617 0.00244666 0.00257972 0.00269083 0.0030863 0.00216617 0.00257972 0 0.00191438 0.00108434 0.00200332 0.00374084 0.00298655 0.00191438 0.00200332 0.00217015 0.00108434 0.00298655 0.00200332 0 0.000231151 0 0.000180077 0.000294305 0.000250971 0.000231151 0.000180077 0 0 0.000250971 0.000180077 0.00358121 0.00418259 0.00713271 0.00634031 0.00473052 0.00761911 0.00418259 0.00634031 0.0103693 0.00713271 0.00761911 0.00634031 0 0.00181429 0 0.00122065 0.00358121 0.0018259 0.00181429 0.00122065 0 0 0.0018259 0.00122065 0 0.00149246 0.00269878 0.00278319 0.00293128 0.00411814 0.00149246 0.00278319 0.00525974 0.00269878 0.00411814 0.00278319 0.000348959 0.000229175 0.000342429 0.000261683 0 0.000185843 0.000229175 0.000261683 0.000326134 0.000342429 0.000185843 0.000261683 0.00287528 0.00295051 0.00406428 0.00373011 0.0030052 0.00415143 0.00295051 0.00373011 0.00521536 0.00406428 0.00415143 0.00373011 0.00522056 0.00526317 0.00409469 0.00449902 0.00525974 0.00411814 0.00526317 0.00449902 0.00293128 0.00409469 0.00411814 0.00449902 0.00232961 0.00119383 0.00117751 0.000795994 0 0 0.00119383 0.000795994 0 0.00117751 0 0.000795994 0 0.000319606 0.000196452 0.000322103 0.00044826 0.000402004 0.000319606 0.000322103 0.000326134 0.000196452 0.000402004 0.000322103 0.0112807 0.0084191 0.00775931 0.00695952 0.00522056 0.00457526 0.0084191 0.00695952 0.00388596 0.00775931 0.00457526 0.00695952 0 0.000221098 0.000209885 0.000264167 0.000348959 0.000329926 0.000221098 0.000264167 0.000313914 0.000209885 0.000329926 0.000264167 0.0145674 0.0138008 0.0139194 0.0134475 0.0115683 0.0120321 0.0138008 0.0134475 0.0120369 0.0139194 0.0120321 0.0134475 0 0 0.000225235 0.000163102 0 0.000229175 0 0.000163102 0.000348959 0.000225235 0.000229175 0.000163102 0 0.00149319 0 0.00100042 0.00293953 0.00149078 0.00149319 0.00100042 0 0 0.00149078 0.00100042 0 0 0.00122974 0.000817409 0 0.00120795 0 0.000817409 0.00240161 0.00122974 0.00120795 0.000817409 0.000464865 0.000595014 0.000637253 0.000600984 0.000404382 0.000472223 0.000595014 0.000600984 0.000541218 0.000637253 0.000472223 0.000600984 0.00388596 0.00457526 0.00342723 0.00403819 0.00522056 0.00409497 0.00457526 0.00403819 0.00293953 0.00342723 0.00409497 0.00403819 0 0.000304597 0.000319721 0.000365411 0.000348959 0.000397504 0.000304597 0.000365411 0.00044826 0.000319721 0.000397504 0.000365411 0 0.000639749 0.000730638 0.000738841 0.000541218 0.000583914 0.000639749 0.000738841 0.000633384 0.000730638 0.000583914 0.000738841 0.00562287 0.00402615 0.00492721 0.00410279 0.00240161 0.00333924 0.00402615 0.00410279 0.00421946 0.00492721 0.00333924 0.00410279 0.000313914 0.000202014 0.000205758 0.000146202 0 0 0.000202014 0.000146202 0 0.000205758 0 0.000146202 0.00240161 0.00120795 0.00120866 0.000809403 0 0 0.00120795 0.000809403 0 0.00120866 0 0.000809403 0.00161359 0.0023169 0.00163531 0.00207008 0.00227685 0.0020856 0.0023169 0.00207008 0.00161352 0.00163531 0.0020856 0.00207008 0.00374084 0.0031222 0.00298655 0.00280532 0.00232961 0.00226324 0.0031222 0.00280532 0.00217015 0.00298655 0.00226324 0.00280532 0 0.00113843 0.00117751 0.00153489 0.00217015 0.00226324 0.00113843 0.00153489 0.00232961 0.00117751 0.00226324 0.00153489 0.00286516 0.0032388 0.00398553 0.00386045 0.00358121 0.00434496 0.0032388 0.00386045 0.00508372 0.00398553 0.00434496 0.00386045 0.000404382 0.000387566 0.000224007 0.000282005 0.000372577 0.000217658 0.000387566 0.000282005 0 0.000224007 0.000217658 0.000282005 0.00374084 0.00403842 0.0031222 0.00349565 0.00421946 0.00327814 0.00403842 0.00349565 0.00232961 0.0031222 0.00327814 0.00349565 0.00260428 0.00418367 0.00367449 0.00437028 0.00562287 0.00521495 0.00418367 0.00437028 0.00473052 0.00367449 0.00521495 0.00437028 0 0 0.00125309 0.000837764 0 0.00122974 0 0.000837764 0.00240161 0.00125309 0.00122974 0.000837764 0.00217015 0.00113843 0.00111299 0.000760591 0 0 0.00113843 0.000760591 0 0.00111299 0 0.000760591 0.00473052 0.00418259 0.00245424 0.00283182 0.00358121 0.00181429 0.00418259 0.00283182 0 0.00245424 0.00181429 0.00283182 0 0 0.000228342 0.000159686 0 0.000232153 0 0.000159686 0.000404382 0.000228342 0.000232153 0.000159686 0.00473052 0.00245424 0.00367449 0.00250888 0 0.00135165 0.00245424 0.00250888 0.00260428 0.00367449 0.00135165 0.00250888 0 0 0.000224007 0.000156115 0 0.000228342 0 0.000156115 0.000404382 0.000224007 0.000228342 0.000156115 0.00260428 0.00132886 0.00131675 0.000887102 0 0 0.00132886 0.000887102 0 0.00131675 0 0.000887102 0 0.000217658 0 0.000149848 0.000372577 0.000212798 0.000217658 0.000149848 0 0 0.000212798 0.000149848 0 0 0.00135165 0.000903265 0 0.00132886 0 0.000903265 0.00260428 0.00135165 0.00132886 0.000903265 0.00044826 0.000367406 0.000319721 0.000254696 0 0 0.000367406 0.000254696 0 0.000319721 0 0.000254696 0.000834337 0.000837743 0.000808802 0.000819954 0.000841718 0.000813511 0.000837743 0.000819954 0.00078469 0.000808802 0.000813511 0.000819954 0.000464865 0.00049885 0.000556879 0.000518852 0.00044826 0.000433815 0.00049885 0.000518852 0.000372577 0.000556879 0.000433815 0.000518852 0.00240161 0.00402615 0.00252653 0.00359139 0.00562287 0.00418367 0.00402615 0.00359139 0.00260428 0.00252653 0.00418367 0.00359139 0 0.00146764 0.00262377 0.0027074 0.00286516 0.00398553 0.00146764 0.0027074 0.00508372 0.00262377 0.00398553 0.0027074 0 0.000279334 0.000304597 0.000332802 0.000313914 0.000329926 0.000279334 0.000332802 0.000348959 0.000304597 0.000329926 0.000332802 0.00118177 0.000600951 0.000580106 0.000397732 0 0 0.000600951 0.000397732 0 0.000580106 0 0.000397732 0 0.00146424 0 0.000984344 0.00286516 0.00146764 0.00146424 0.000984344 0 0 0.00146764 0.000984344 0.00536926 0.00395054 0.00366 0.00318966 0.001962 0.0017826 0.00395054 0.00318966 0.00162996 0.00366 0.0017826 0.00318966 0.000789896 0.000746833 0.000975567 0.000887434 0.000696356 0.000944249 0.000746833 0.000887434 0.00118978 0.000975567 0.000944249 0.000887434 0 0.00262377 0.00198006 0.00305052 0.00508372 0.00450372 0.00262377 0.00305052 0.00388596 0.00198006 0.00450372 0.00305052 0 0.00102775 0.00169364 0.00179121 0.001962 0.00260927 0.00102775 0.00179121 0.00327901 0.00169364 0.00260927 0.00179121 0.000313914 0.000303386 0.000202014 0.00024822 0.000294305 0.000205318 0.000303386 0.00024822 0 0.000202014 0.000205318 0.00024822 0 0.000149677 0.000203697 0.000217139 0.000244612 0.000264499 0.000149677 0.000217139 0.000270588 0.000203697 0.000264499 0.000217139 0.000294305 0.000271199 0.000202788 0.000218571 0.000244612 0.000152776 0.000271199 0.000218571 0 0.000202788 0.000152776 0.000218571 0.000270843 0.000168529 0.000164935 0.000117919 0 0 0.000168529 0.000117919 0 0.000164935 0 0.000117919 0 0.000414704 0.000314369 0.000465894 0.00073804 0.000642523 0.000414704 0.000465894 0.000553084 0.000314369 0.000642523 0.000465894 0 0.000215293 0.000202437 0.000245761 0.000273983 0.000270747 0.000215293 0.000245761 0.000270588 0.000202437 0.000270747 0.000245761 0.00230317 0.00232839 0.00199878 0.00214229 0.00232067 0.00208251 0.00232839 0.00214229 0.00173519 0.00199878 0.00208251 0.00214229 0.000273983 0.000191049 0.000270747 0.000234994 0 0.000203367 0.000191049 0.000234994 0.000270588 0.000270747 0.000203367 0.000234994 0.000633384 0.000358901 0.000367091 0.0002521 0 0 0.000358901 0.0002521 0 0.000367091 0 0.0002521 0.00388596 0.00197905 0.00198006 0.0013287 0 0 0.00197905 0.0013287 0 0.00198006 0 0.0013287 0 0.000421058 0 0.00028932 0.00073804 0.000414704 0.000421058 0.00028932 0 0 0.000414704 0.00028932 0 0.000595192 0 0.000394725 0.00118177 0.000580106 0.000595192 0.000394725 0 0 0.000580106 0.000394725 0 0.000308651 0 0.000210332 0.000553084 0.000303142 0.000308651 0.000210332 0 0 0.000303142 0.000210332 0 0.000192173 0 0.000123468 0.000380706 0.000180706 0.000192173 0.000123468 0 0 0.000180706 0.000123468 0 6.37898e-05 0 4.92702e-05 0 4.62847e-05 6.37898e-05 4.92702e-05 0 0 4.62847e-05 4.92702e-05 0 0 0 8.18302e-06 0 1.17003e-05 0 8.18302e-06 0 0 1.17003e-05 8.18302e-06 0.000737425 0.000333763 0.000376525 0.00023268 0 0 0.000333763 0.00023268 0 0.000376525 0 0.00023268 0.000425784 0.000201627 0.000214563 0.000137504 0 0 0.000201627 0.000137504 0 0.000214563 0 0.000137504 0.000737425 0.00117178 0.00118549 0.00132368 0.00162619 0.00160385 0.00117178 0.00132368 0.00158054 0.00118549 0.00160385 0.00132368 0.00464513 0.00240556 0.00212307 0.00146633 0 0 0.00240556 0.00146633 0 0.00212307 0 0.00146633 0.000724626 0.000734651 0.00070595 0.000719069 0.000744608 0.00071664 0.000734651 0.000719069 0.000688182 0.00070595 0.00071664 0.000719069 0.000124755 0.000116566 0.000167757 0.000148525 0.000107811 0.000161242 0.000116566 0.000148525 0.000212725 0.000167757 0.000161242 0.000148525 0.00118177 0.000783811 0.00189813 0.00137537 0 0.00140494 0.000783811 0.00137537 0.00256902 0.00189813 0.00140494 0.00137537 0 0.000454751 0 0.000309957 0.000828352 0.000449652 0.000454751 0.000309957 0 0 0.000449652 0.000309957 0.00388596 0.00198915 0.00197905 0.00133248 0 0 0.00198915 0.00133248 0 0.00197905 0 0.00133248 0.000826839 0.000740175 0.000879038 0.000791782 0.000600366 0.000744254 0.000740175 0.000791782 0.000901111 0.000879038 0.000744254 0.000791782 0.0016813 0.0013382 0.00155127 0.00134809 0.000857857 0.00112007 0.0013382 0.00134809 0.00135467 0.00155127 0.00112007 0.00134809 0 0.00198915 0.00149319 0.00231199 0.00388596 0.00342723 0.00198915 0.00231199 0.00293953 0.00149319 0.00342723 0.00231199 0.00151696 0.00155628 0.00136454 0.00144666 0.0015924 0.00141489 0.00155628 0.00144666 0.00121577 0.00136454 0.00141489 0.00144666 0 0 0.000501216 0.000351432 0 0.000514743 0 0.000351432 0.000901111 0.000501216 0.000514743 0.000351432 0.000901111 0.00106022 0.00129917 0.00129734 0.00122728 0.0014541 0.00106022 0.00129734 0.0014555 0.00129917 0.0014541 0.00129734 0 0.00149078 0 0.00100056 0.00293953 0.001494 0.00149078 0.00100056 0 0 0.001494 0.00100056 0.00118177 0.00174203 0.00136951 0.00167415 0.00228784 0.00187334 0.00174203 0.00167415 0.00139969 0.00136951 0.00187334 0.00167415 0.000737425 0.00118549 0.000787024 0.00103805 0.00158054 0.00114757 0.00118549 0.00103805 0.000791288 0.000787024 0.00114757 0.00103805 0.000541218 0.000318826 0.000325747 0.000226309 0 0 0.000318826 0.000226309 0 0.000325747 0 0.000226309 0.00293953 0.00294547 0.001494 0.00198336 0.00293128 0.00149161 0.00294547 0.00198336 0 0.001494 0.00149161 0.00198336 0 0.00012272 0 8.35277e-05 0.000155837 0.000103765 0.00012272 8.35277e-05 0 0 0.000103765 8.35277e-05 0 1.17003e-05 0 1.66502e-05 0 3.002e-05 1.17003e-05 1.66502e-05 0 0 3.002e-05 1.66502e-05 0.0016813 0.00191809 0.00189235 0.00202971 0.00211059 0.00215763 0.00191809 0.00202971 0.00182197 0.00189235 0.00215763 0.00202971 0 0.000259919 0.000220677 0.000312153 0.000498044 0.000435314 0.000259919 0.000312153 0.000359045 0.000220677 0.000435314 0.000312153 0 0 0.000336115 0.000236506 0 0.000346353 0 0.000236506 0.000600366 0.000336115 0.000346353 0.000236506 0.000498044 0.00067276 0.000667425 0.000719094 0.000826839 0.000784763 0.00067276 0.000719094 0.000706321 0.000667425 0.000784763 0.000719094 0.000860571 0.000493964 0.000790439 0.000559512 0 0.000364376 0.000493964 0.000559512 0.000701177 0.000790439 0.000364376 0.000559512 0.000857857 0.0013382 0.000841242 0.00117586 0.0016813 0.00130443 0.0013382 0.00117586 0.000828352 0.000841242 0.00130443 0.00117586 0 0 0.00148891 0.000996441 0 0.00148436 0 0.000996441 0.00293128 0.00148891 0.00148436 0.000996441 0.00104556 0.00104593 0.00164323 0.00148195 0.00107239 0.00169689 0.00104593 0.00148195 0.00211059 0.00164323 0.00169689 0.00148195 0.00122728 0.000701851 0.00105168 0.000741872 0 0.000428187 0.000701851 0.000741872 0.000828352 0.00105168 0.000428187 0.000741872 0 0.00148891 0 0.000999669 0.00293128 0.00149246 0.00148891 0.000999669 0 0 0.00149246 0.000999669 0 0 0.000367091 0.000259133 0 0.00037453 0 0.000259133 0.000633384 0.000367091 0.00037453 0.000259133 0.00195456 0.00101785 0.00175778 0.0011984 0 0.000794359 0.00101785 0.0011984 0.00153927 0.00175778 0.000794359 0.0011984 0.00107239 0.000546688 0.000578423 0.000377804 0 0 0.000546688 0.000377804 0 0.000578423 0 0.000377804 0.00195456 0.00188378 0.00101314 0.0012876 0.00179487 0.000937376 0.00188378 0.0012876 0 0.00101314 0.000937376 0.0012876 0.000701177 0.000379279 0.00039122 0.000265109 0 0 0.000379279 0.000265109 0 0.00039122 0 0.000265109 0.0269846 0.0230655 0.0158823 0.0169727 0.0186069 0.010671 0.0230655 0.0169727 0 0.0158823 0.010671 0.0169727 0 0 0.00202083 0.00155224 0 0.00229815 0 0.00155224 0.00316959 0.00202083 0.00229815 0.00155224 0.000792991 0.000423578 0.000430229 0.000291203 0 0 0.000423578 0.000291203 0 0.000430229 0 0.000291203 0 0 0.00217904 0.00143479 0 0.00202083 0 0.00143479 0.00316959 0.00217904 0.00202083 0.00143479 0.0030052 0.00152302 0.00414946 0.00280378 0 0.00269878 0.00152302 0.00280378 0.00525974 0.00414946 0.00269878 0.00280378 0.00135467 0.00175816 0.00155127 0.00175461 0.00211059 0.00191809 0.00175816 0.00175461 0.0016813 0.00155127 0.00191809 0.00175461 0.00287528 0.00144917 0.00146197 0.000975083 0 0 0.00144917 0.000975083 0 0.00146197 0 0.000975083 0 0.000423578 0.00039122 0.000526299 0.000792991 0.000744044 0.000423578 0.000526299 0.000701177 0.00039122 0.000744044 0.000526299 0 0.00149161 0 0.000998205 0.00293128 0.00148436 0.00149161 0.000998205 0 0 0.00148436 0.000998205 0 0 0.000376681 0.000257955 0 0.000379279 0 0.000257955 0.000701177 0.000376681 0.000379279 0.000257955 0.00273356 0.00321913 0.00224157 0.0028242 0.0037937 0.00296449 0.0032